% Model:              VLR_3_01V03.mph
% Version:            COMSOL 5.5.0.292
% Date:               Jun 28 2020, 18:28
% Dimension:          2
% Nodes:              5186
% Expressions:        1
% Description:        Electric potential
% Length unit:        cm
% x                       y                        V2 (V)
-8.056005026605293        -4                       0
-7.9999999999999964       -4.05                    0
-8.000000000000004        -3.9500000000000006      0
-8.11166992632957         -3.9500000000000006      0
-8.112350180091601        -4.05                    0
-8.242961081335064        -3.9500000000000006      0
-8.244509798454006        -4.05                    0
-8.382652576760025        -3.9500000000000006      0
-8.384213842914447        -4.05                    0
-8.522431203358254        -3.9500000000000006      0
-8.523981884657399        -4.05                    0
-8.662209829956481        -3.9500000000000006      0
-8.663749926400351        -4.05                    0
-8.80198845655471         -3.9500000000000006      0
-8.803517968143304        -4.05                    0
-8.94176708315294         -3.95                    0
-8.943286009886254        -4.05                    0
-9.081545709751168        -3.9500000000000006      0
-9.083054051629208        -4.05                    0
-9.221324336349397        -3.9500000000000006      0
-9.222822093372159        -4.05                    0
-9.361102962947626        -3.9500000000000006      0
-9.362590135115113        -4.05                    0
-9.500881589545855        -3.9500000000000006      0
-9.502358176858063        -4.05                    0
-9.640660216144084        -3.9500000000000006      0
-9.642126218601016        -4.05                    0
-9.780438842742313        -3.9500000000000006      0
-9.781894260343968        -4.05                    0
-9.920217469340542        -3.9500000000000006      0
-9.92166230208692         -4.05                    0
-10.05999609593877        -3.9500000000000006      0
-10.061430343829873       -4.05                    0
-10.199774722536999       -3.9500000000000006      0
-10.201198385572825       -4.05                    0
-10.339553349135228       -3.9500000000000006      0
-10.340966427315777       -4.05                    0
-10.479331975733457       -3.9500000000000006      0
-10.48073446905873        -4.05                    0
-10.619110602331686       -3.9500000000000006      0
-10.620502510801682       -4.05                    0
-10.758889228929913       -3.9500000000000006      0
-10.760270552544632       -4.05                    0
-10.898667855528142       -3.9500000000000006      0
-10.900038594287585       -4.05                    0
-11.038446482126371       -3.9500000000000006      0
-11.039806636030537       -4.05                    0
-11.1782251087246         -3.9500000000000006      0
-11.17957467777349        -4.05                    0
-11.31800373532283        -3.9500000000000006      0
-11.319342719516442       -4.05                    0
-11.457782361921058       -3.9500000000000006      0
-11.459110761259392       -4.05                    0
-11.597560988519287       -3.9500000000000006      0
-11.598878803002346       -4.05                    0
-11.737339615117516       -3.9500000000000006      0
-11.738646844745297       -4.05                    0
-11.877118241715745       -3.9500000000000006      0
-11.87841488648825        -4.05                    0
-12.016896868313975       -3.9500000000000006      0
-12.018182928231202       -4.05                    0
-12.156675494912204       -3.9500000000000006      0
-12.157950969974154       -4.05                    0
-12.29645412151043        -3.9500000000000006      0
-12.297719011717106       -4.05                    0
-12.43623274810866        -3.9500000000000006      0
-12.437487053460059       -4.05                    0
-12.576011374706889       -3.95                    0
-12.57725509520301        -4.05                    0
-12.71579000130512        -3.95                    0
-12.717023136945963       -4.05                    0
-12.855568627903347       -3.95                    0
-12.856791178688914       -4.05                    0
-12.995347254501574       -3.95                    0
-12.996559220431866       -4.05                    0
-13.135125881099805       -3.95                    0
-13.136327262174822       -4.05                    0
-13.274904507698032       -3.9500000000000006      0
-13.276095303917772       -4.05                    0
-13.414683134296263       -3.9500000000000006      0
-13.415863345660725       -4.05                    0
-13.55446176089449        -3.9500000000000006      0
-13.55563138740368        -4.050000000000001       0
-13.694240387492721       -3.9500000000000006      0
-13.695399429146631       -4.05                    0
-13.834019014090948       -3.9500000000000006      0
-13.835167470889584       -4.05                    0
-13.973797640689178       -3.9500000000000006      0
-13.974935512632536       -4.05                    0
-14.113576267287407       -3.9500000000000006      0
-14.114703554375488       -4.05                    0
-14.253354893885634       -3.9500000000000006      0
-14.254471596118442       -4.05                    0
-14.393133520483865       -3.9500000000000006      0
-14.394239637861395       -4.05                    0
-14.532912147082092       -3.9500000000000006      0
-14.534007679604347       -4.05                    0
-14.67269077368032        -3.9500000000000006      0
-14.673775721347301       -4.050000000000001       0
-14.81246940027855        -3.9500000000000006      0
-14.813543763090253       -4.05                    0
-14.952248026876777       -3.9500000000000006      0
-14.953311804833206       -4.05                    0
-15.092026653475008       -3.9500000000000006      0
-15.093079846576158       -4.05                    0
-15.231805280073235       -3.9500000000000006      0
-15.232847888319109       -4.05                    0
-15.371583906671466       -3.9500000000000006      0
-15.372615930062064       -4.05                    0
-15.511362533269693       -3.9500000000000006      0
-15.512383971805017       -4.05                    0
-15.651141159867924       -3.9500000000000006      0
-15.652152013547967       -4.05                    0
-15.790919786466151       -3.9500000000000006      0
-15.791920055290923       -4.05                    0
-15.93069841306438        -3.9500000000000006      0
-15.931688097033875       -4.05                    0
-16.070477039662606       -3.9500000000000006      0
-16.071456138776828       -4.05                    0
-16.21025566626084        -3.95                    0
-16.21122418051978        -4.05                    0
-16.350034292859064       -3.95                    0
-16.350992222262732       -4.05                    0
-16.489812919457297       -3.95                    0
-16.490760264005687       -4.05                    0
-16.629591546055522       -3.95                    0
-16.630528305748637       -4.05                    0
-16.76937017265375        -3.95                    0
-16.77029634749159        -4.05                    0
-16.90914879925198        -3.95                    0
-16.910064389234545       -4.05                    0
-17.04892742585021        -3.95                    0
-17.049832430977496       -4.05                    0
-17.18870605244844        -3.95                    0
-17.18960047272045        -4.05                    0
-17.328484679046667       -3.95                    0
-17.3293685144634         -4.05                    0
-17.468263305644896       -3.95                    0
-17.469136556206355       -4.05                    0
-17.608041932243125       -3.9500000000000006      0
-17.60890459794931        -4.05                    0
-17.747820558841354       -3.9500000000000006      0
-17.74867263969226        -4.05                    0
-17.887599185439583       -3.9500000000000006      0
-17.888440681435213       -4.05                    0
-18.027377812037813       -3.9500000000000006      0
-18.028208723178164       -4.05                    0
-18.16715643863604        -3.9500000000000006      0
-18.167976764921118       -4.05                    0
-18.30693506523427        -3.9500000000000006      0
-18.30774480666407        -4.05                    0
-18.4467136918325         -3.9500000000000006      0
-18.447512848407023       -4.05                    0
-18.58649231843073        -3.9500000000000006      0
-18.587280890149977       -4.05                    0
-18.726270945028958       -3.9500000000000006      0
-18.727048931892927       -4.05                    0
-18.866049571627187       -3.9500000000000006      0
-18.866816973635878       -4.050000000000001       0
-19.005828198225412       -3.9500000000000006      0
-19.006585015378832       -4.05                    0
-19.145606824823645       -3.9500000000000006      0
-19.146353057121782       -4.049999999999999       0
-19.28538545142187        -3.9500000000000006      0
-19.286121098864733       -4.05                    0
-19.4251640780201         -3.9500000000000006      0
-19.425889140607687       -4.05                    0
-19.56494270461833        -3.95                    0
-19.565657182350634       -4.05                    0
-19.704721331216557       -3.95                    0
-19.705425224093588       -4.05                    0
-19.844499957814786       -3.95                    0
-19.84519326583654        -4.05                    0
-19.984278584413016       -3.95                    0
-19.984961307579493       -4.05                    0
-20.124057211011245       -3.95                    0
-20.124729349322443       -4.05                    0
-20.263835837609474       -3.95                    0
-20.264497391065394       -4.05                    0
-20.403614464207703       -3.95                    0
-20.404265432808344       -4.05                    0
-20.543393090805928       -3.95                    0
-20.5440334745513         -4.05                    0
-20.68317171740416        -3.95                    0
-20.68380151629425        -4.05                    0
-20.822950344002386       -3.95                    0
-20.8235695580372         -4.05                    0
-20.96272897060062        -3.95                    0
-20.963337599780154       -4.05                    0
-21.102507597198844       -3.95                    0
-21.103105641523104       -4.05                    0
-21.242286223797073       -3.95                    0
-21.242873683266055       -4.05                    0
-21.382064850395302       -3.95                    0
-21.382641725009005       -4.05                    0
-21.521843476993535       -3.95                    0
-21.52240976675196        -4.05                    0
-21.66162210359176        -3.95                    0
-21.66217780849491        -4.05                    0
-21.80140073018999        -3.9500000000000006      0
-21.801945850237864       -4.05                    0
-21.94117935678822        -3.9500000000000006      0
-21.941713891980815       -4.05                    0
-22.080957983386448       -3.9500000000000006      0
-22.08148193372376        -4.05                    0
-22.220736609984677       -3.9500000000000006      0
-22.221249975466716       -4.05                    0
-22.360515236582906       -3.9500000000000006      0
-22.361018017209666       -4.05                    0
-22.500293863181135       -3.9500000000000006      0
-22.500786058952617       -4.05                    0
-22.640072489779364       -3.9500000000000006      0
-22.64055410069557        -4.05                    0
-22.779851116377593       -3.9500000000000006      0
-22.78032214243852        -4.05                    0
-22.91962974297582        -3.9500000000000006      0
-22.920090184181475       -4.05                    0
-23.05940836957405        -3.9500000000000006      0
-23.059858225924426       -4.05                    0
-23.19918699617228        -3.9500000000000006      0
-23.199626267667377       -4.05                    0
-23.338965622770505       -3.9500000000000006      0
-23.33939430941033        -4.05                    0
-23.478744249368734       -3.95                    0
-23.47916235115328        -4.05                    0
-23.618522875966967       -3.95                    0
-23.618930392896228       -4.05                    0
-23.75830150256519        -3.95                    0
-23.758698434639182       -4.05                    0
-23.89808012916342        -3.95                    0
-23.898466476382133       -4.05                    0
-24.03785875576165        -3.95                    0
-24.038234518125087       -4.05                    0
-24.17763738235988        -3.95                    0
-24.17800255986804        -4.05                    0
-24.317416008958105       -3.95                    0
-24.317770601610988       -4.05                    0
-24.457194635556338       -3.95                    0
-24.457538643353942       -4.05                    0
-24.596973262154567       -3.95                    0
-24.597306685096893       -4.05                    0
-24.736751888752792       -3.95                    0
-24.737074726839843       -4.05                    0
-24.87653051535102        -3.95                    0
-24.8768427685828         -4.05                    0
-25.016309141949257       -3.95                    0
-25.01661081032575        -4.05                    0
-25.15608776854748        -3.95                    0
-25.156378852068702       -4.05                    0
-25.295866395145712       -3.95                    0
-25.29614689381165        -4.05                    0
-25.435645021743937       -3.95                    0
-25.4359149355546         -4.05                    0
-25.575423648342166       -3.95                    0
-25.575682977297554       -4.05                    0
-25.715202274940395       -3.95                    0
-25.715451019040504       -4.05                    0
-25.854980901538628       -3.95                    0
-25.855219060783458       -4.05                    0
-25.99475952813685        -3.9500000000000006      0
-25.994987102526405       -4.05                    0
-26.134538154735083       -3.9500000000000006      0
-26.134755144269363       -4.05                    0
-26.27431678133331        -3.9500000000000006      0
-26.274523186012317       -4.05                    0
-26.414095407931544       -3.9500000000000006      0
-26.414291227755264       -4.05                    0
-26.553874034529766       -3.9500000000000006      0
-26.55405926949822        -4.05                    0
-26.693652661128          -3.9500000000000006      0
-26.693827311241165       -4.05                    0
-26.833431287726228       -3.9500000000000006      0
-26.83359535298412        -4.05                    0
-26.973209914324453       -3.9500000000000006      0
-26.973363394727066       -4.05                    0
-27.11298854092269        -3.9500000000000006      0
-27.113131436470024       -4.05                    0
-27.252767167520915       -3.95                    0
-27.252899478212978       -4.050000000000001       0
-27.392545794119137       -3.95                    0
-27.39266751995593        -4.05                    0
-27.53232442071737        -3.95                    0
-27.532435561698875       -4.049999999999999       0
-27.672103047315606       -3.95                    0
-27.67220360344183        -4.05                    0
-27.81188167391383        -3.95                    0
-27.81197164518478        -4.05                    0
-27.951660300512053       -3.95                    0
-27.95173968692773        -4.05                    0
-28.091438927110286       -3.95                    0
-28.091507728670678       -4.05                    0
-28.23127577041363        -4.05                    0
-28.23121755370851        -3.95                    0
-28.370996180306747       -3.95                    0
-28.37104381215659        -4.050000000000001       0
-28.510811853899536       -4.05                    0
-28.510774806904976       -3.95                    0
-28.650579895642487       -4.049999999999999       0
-28.6505534335032         -3.95                    0
-28.790332060101427       -3.95                    0
-28.79034793738544        -4.05                    0
-28.93011597912839        -4.05                    0
-28.930110686699663       -3.95                    0
-29.069884020871346       -4.05                    0
-29.069889313297892       -3.95                    0
-29.209667939896118       -3.95                    0
-29.209652062614293       -4.05                    0
-29.34942010435725        -4.05                    0
-29.349446566494343       -3.95                    0
-29.489188146100204       -4.05                    0
-29.489225193092576       -3.95                    0
-29.62895618784316        -4.05                    0
-29.6290038196908         -3.95                    0
-29.768724229586113       -4.05                    0
-29.768782446289034       -3.95                    0
-29.908492271329067       -4.05                    0
-29.908561072887256       -3.95                    0
-30.048260313072024       -4.05                    0
-30.04833969948549        -3.95                    0
-30.18802835481497        -4.05                    0
-30.188118326083718       -3.95                    0
-30.327796396557932       -4.05                    0
-30.32789695268195        -3.95                    0
-30.467564438300883       -4.05                    0
-30.46767557928018        -3.95                    0
-30.607332480043837       -4.05                    0
-30.607454205878405       -3.95                    0
-30.74710052178679        -4.05                    0
-30.747232832476634       -3.95                    0
-30.886868563529745       -4.05                    0
-30.887011459074863       -3.95                    0
-31.026636605272696       -4.05                    0
-31.026790085673095       -3.95                    0
-31.16640464701565        -4.05                    0
-31.16656871227132        -3.95                    0
-31.306172688758604       -4.05                    0
-31.30634733886955        -3.95                    0
-31.445940730501565       -4.05                    0
-31.446125965467775       -3.9500000000000006      0
-31.585708772244516       -4.05                    0
-31.58590459206601        -3.9500000000000006      0
-31.72547681398747        -4.05                    0
-31.725683218664237       -3.9500000000000006      0
-31.865244855730424       -4.05                    0
-31.86546184526246        -3.9500000000000006      0
-32.00501289747337        -4.05                    0
-32.005240471860695       -3.9500000000000006      0
-32.144780939216325       -4.05                    0
-32.145019098458924       -3.95                    0
-32.284548980959286       -4.05                    0
-32.284797725057146       -3.95                    0
-32.42431702270223        -4.05                    0
-32.424576351655375       -3.95                    0
-32.56408506444519        -4.05                    0
-32.56435497825361        -3.95                    0
-32.70385310618814        -4.05                    0
-32.70413360485183        -3.95                    0
-32.843621147931096       -4.05                    0
-32.84391223145006        -3.95                    0
-32.98338918967405        -4.05                    0
-32.98369085804829        -3.95                    0
-33.123157231417004       -4.05                    0
-33.12346948464653        -3.95                    0
-33.26292527315996        -4.05                    0
-33.26324811124475        -3.95                    0
-33.40269331490291        -4.05                    0
-33.40302673784298        -3.95                    0
-33.542461356645866       -4.05                    0
-33.54280536444121        -3.95                    0
-33.68222939838882        -4.05                    0
-33.68258399103944        -3.95                    0
-33.821997440131774       -4.05                    0
-33.822362617637665       -3.95                    0
-33.96176548187473        -4.05                    0
-33.962141244235895       -3.95                    0
-34.10153352361768        -4.05                    0
-34.101919870834124       -3.95                    0
-34.24130156536064        -4.05                    0
-34.24169849743235        -3.95                    0
-34.38106960710359        -4.05                    0
-34.38147712403058        -3.95                    0
-34.520837648846545       -4.05                    0
-34.52125575062881        -3.95                    0
-34.6606056905895         -4.05                    0
-34.66103437722704        -3.95                    0
-34.80037373233245        -4.05                    0
-34.80081300382527        -3.95                    0
-34.9401417740754         -4.05                    0
-34.9405916304235         -3.95                    0
-35.07990981581836        -4.05                    0
-35.08037025702173        -3.95                    0
-35.219677857561315       -4.05                    0
-35.22014888361995        -3.95                    0
-35.35944589930426        -4.05                    0
-35.359927510218185       -3.95                    0
-35.49921394104722        -4.05                    0
-35.499706136816414       -3.95                    0
-35.63898198279018        -4.05                    0
-35.639484763414636       -3.9500000000000006      0
-35.778750024533124       -4.05                    0
-35.77926339001287        -3.9500000000000006      0
-35.918518066276086       -4.05                    0
-35.9190420166111         -3.9500000000000006      0
-36.05828610801903        -4.05                    0
-36.05882064320933        -3.95                    0
-36.19805414976199        -4.05                    0
-36.19859926980756        -3.95                    0
-36.33782219150495        -4.05                    0
-36.33837789640578        -3.95                    0
-36.477590233247895       -4.05                    0
-36.47815652300402        -3.95                    0
-36.61735827499085        -4.05                    0
-36.617935149602246       -3.95                    0
-36.75712631673381        -4.05                    0
-36.75771377620047        -3.95                    0
-36.89689435847676        -4.05                    0
-36.897492402798704       -3.95                    0
-37.03666240021971        -4.05                    0
-37.03727102939693        -3.95                    0
-37.176430441962665       -4.05                    0
-37.177049655995155       -3.95                    0
-37.31619848370562        -4.05                    0
-37.31682828259339        -3.95                    0
-37.45596652544858        -4.05                    0
-37.45660690919161        -3.95                    0
-37.59573456719153        -4.05                    0
-37.59638553578984        -3.95                    0
-37.73550260893448        -4.05                    0
-37.73616416238808        -3.95                    0
-37.87527065067744        -4.05                    0
-37.8759427889863         -3.95                    0
-38.01503869242039        -4.05                    0
-38.01572141558453        -3.95                    0
-38.154806734163344       -4.05                    0
-38.155500042182766       -3.95                    0
-38.2945747759063         -4.05                    0
-38.29527866878099        -3.95                    0
-38.43434281764925        -4.05                    0
-38.43505729537922        -3.95                    0
-38.574110859392206       -4.05                    0
-38.574835921977446       -3.95                    0
-38.71387890113516        -4.05                    0
-38.714614548575675       -3.95                    0
-38.853646942878115       -4.05                    0
-38.854393175173904       -3.95                    0
-38.99341498462107        -4.05                    0
-38.99417180177213        -3.95                    0
-39.13318302636402        -4.05                    0
-39.13395042837036        -3.95                    0
-39.27295106810698        -4.05                    0
-39.273729054968584       -3.95                    0
-39.41271910984993        -4.05                    0
-39.41350768156682        -3.9500000000000006      0
-39.552487151592885       -4.05                    0
-39.55328630816505        -3.9500000000000006      0
-39.69225519333584        -4.05                    0
-39.69306493476327        -3.9500000000000006      0
-39.832023235078786       -4.05                    0
-39.83284356136151        -3.95                    0
-39.97179127682175        -4.05                    0
-39.972622187959736       -3.95                    0
-40.1115593185647         -4.05                    0
-40.11240081455796        -3.95                    0
-40.25132736030765        -4.05                    0
-40.252179441156194       -3.95                    0
-40.39109540205061        -4.05                    0
-40.391958067754416       -3.95                    0
-40.530863443793564       -4.05                    0
-40.531736694352645       -3.95                    0
-40.67063148553651        -4.05                    0
-40.67151532095088        -3.95                    0
-40.81039952727947        -4.05                    0
-40.8112939475491         -3.95                    0
-40.95016756902242        -4.05                    0
-40.95107257414734        -3.95                    0
-41.08993561076537        -4.05                    0
-41.09085120074557        -3.95                    0
-41.229703652508334       -4.05                    0
-41.23062982734379        -3.95                    0
-41.36947169425128        -4.05                    0
-41.37040845394203        -3.95                    0
-41.50923973599424        -4.05                    0
-41.51018708054025        -3.95                    0
-41.6490077777372         -4.05                    0
-41.64996570713848        -3.95                    0
-41.78877581948014        -4.05                    0
-41.789744333736714       -3.95                    0
-41.928543861223105       -4.05                    0
-41.929522960334936       -3.95                    0
-42.06831190296605        -4.05                    0
-42.069301586933165       -3.95                    0
-42.20807994470901        -4.05                    0
-42.2090802135314         -3.95                    0
-42.34784798645197        -4.05                    0
-42.34885884012962        -3.95                    0
-42.487616028194914       -4.05                    0
-42.48863746672785        -3.95                    0
-42.62738406993787        -4.05                    0
-42.62841609332608        -3.95                    0
-42.76715211168083        -4.05                    0
-42.76819471992431        -3.95                    0
-42.906920153423776       -4.05                    0
-42.90797334652254        -3.95                    0
-43.04668819516673        -4.05                    0
-43.04775197312077        -3.95                    0
-43.186456236909684       -4.05                    0
-43.187530599719          -3.95                    0
-43.32622427865264        -4.05                    0
-43.327309226317226       -3.95                    0
-43.46599232039559        -4.05                    0
-43.467087852915455       -3.95                    0
-43.60576036213855        -4.05                    0
-43.606866479513684       -3.9500000000000006      0
-43.7455284038815         -4.05                    0
-43.746645106111906       -3.95                    0
-43.885296445624455       -4.05                    0
-43.88642373271014        -3.95                    0
-44.02506448736741        -4.05                    0
-44.02620235930837        -3.95                    0
-44.16483252911036        -4.05                    0
-44.16598098590659        -3.95                    0
-44.30460057085331        -4.05                    0
-44.30575961250483        -3.95                    0
-44.44436861259627        -4.05                    0
-44.44553823910306        -3.95                    0
-44.584136654339225       -4.05                    0
-44.58531686570128        -3.95                    0
-44.72390469608217        -4.05                    0
-44.725095492299516       -3.95                    0
-44.863672737825134       -4.05                    0
-44.86487411889774        -3.95                    0
-45.00344077956809        -4.05                    0
-45.004652745495974       -3.95                    0
-45.143208821311035       -4.05                    0
-45.1444313720942         -3.95                    0
-45.282976863053996       -4.05                    0
-45.284209998692425       -3.95                    0
-45.42274490479694        -4.05                    0
-45.42398862529066        -3.9500000000000006      0
-45.5625129465399         -4.05                    0
-45.56376725188889        -3.95                    0
-45.702280988282865       -4.05                    0
-45.70354587848712        -3.95                    0
-45.842049030025805       -4.05                    0
-45.84332450508535        -3.95                    0
-45.98181707176876        -4.05                    0
-45.98310313168358        -3.95                    0
-46.12158511351172        -4.05                    0
-46.12288175828181        -3.95                    0