% Model:              VLR_3_01V03.mph
% Version:            COMSOL 5.5.0.292
% Date:               Jun 28 2020, 18:29
% Dimension:          2
% Nodes:              5364
% Expressions:        1
% Description:        Electric potential
% Length unit:        cm
% x                       y                        V2 (V)
-8.056005026605293        -3.0000000000000004      0
-7.9999999999999964       -3.05                    0
-8.000000000000004        -2.9500000000000006      0
-8.11166992632957         -2.9500000000000006      0
-8.112350180091603        -3.0500000000000003      0
-8.242961081335064        -2.9500000000000006      0
-8.244509798453999        -3.05                    0
-8.382652576767276        -2.9500000000000006      0
-8.384213842914441        -3.05                    0
-8.522431203360673        -2.9500000000000006      0
-8.523981884657395        -3.05                    0
-8.66220982995407         -2.9500000000000006      0
-8.66374992640035         -3.05                    0
-8.801988456557112        -2.9500000000000006      0
-8.803517968143304        -3.05                    0
-8.941767083160153        -2.9500000000000006      0
-8.943286009886258        -3.05                    0
-9.081545709753561        -2.9500000000000006      0
-9.083054051629212        -3.05                    0
-9.221324336346967        -2.9500000000000006      0
-9.222822093372166        -3.05                    0
-9.36110296294999         -2.9500000000000006      0
-9.36259013511512         -3.05                    0
-9.500881589553012        -2.9500000000000006      0
-9.502358176858074        -3.05                    0
-9.640660216146424        -2.9500000000000006      0
-9.642126218601026        -3.05                    0
-9.780438842739837        -2.9500000000000006      0
-9.78189426034398         -3.05                    0
-9.920217469342873        -2.9500000000000006      0
-9.921662302086935        -3.05                    0
-10.059996095945909       -2.9500000000000006      0
-10.061430343829889       -3.05                    0
-10.19977472253932        -2.9500000000000006      0
-10.201198385572843       -3.05                    0
-10.339553349132732       -2.9500000000000006      0
-10.340966427315797       -3.05                    0
-10.479331975735755       -2.9500000000000006      0
-10.48073446905875        -3.05                    0
-10.619110602338779       -2.9500000000000006      0
-10.620502510801703       -3.05                    0
-10.758889228932208       -2.9500000000000006      0
-10.760270552544657       -3.05                    0
-10.89866785552564        -2.9500000000000006      0
-10.900038594287611       -3.05                    0
-11.038446482128638       -2.9500000000000006      0
-11.039806636030566       -3.05                    0
-11.178225108731638       -2.9500000000000006      0
-11.17957467777352        -3.05                    0
-11.318003735325082       -2.9500000000000006      0
-11.319342719516474       -3.05                    0
-11.457782361918525       -2.9500000000000006      0
-11.459110761259428       -3.05                    0
-11.597560988521526       -2.9500000000000006      0
-11.598878803002382       -3.05                    0
-11.737339615124524       -2.9500000000000006      0
-11.738646844745336       -3.05                    0
-11.877118241717964       -2.95                    0
-11.87841488648829        -3.05                    0
-12.016896868311404       -2.9500000000000006      0
-12.018182928231242       -3.05                    0
-12.1566754949144         -2.9500000000000006      0
-12.157950969974198       -3.05                    0
-12.296454121517392       -2.9500000000000006      0
-12.29771901171715        -3.05                    0
-12.436232748110838       -2.9500000000000006      0
-12.437487053460107       -3.05                    0
-12.576011374704283       -2.9500000000000006      0
-12.57725509520306        -3.05                    0
-12.715790001307287       -2.9500000000000006      0
-12.717023136946013       -3.05                    0
-12.85556862791029        -2.9500000000000006      0
-12.856791178688965       -3.05                    0
-12.995347254503725       -2.9500000000000006      0
-12.99655922043192        -3.05                    0
-13.13512588109716        -2.9500000000000006      0
-13.136327262174873       -3.05                    0
-13.274904507700173       -2.9500000000000006      0
-13.27609530391783        -3.05                    0
-13.414683134303186       -2.9500000000000006      0
-13.41586334566078        -3.05                    0
-13.554461760896622       -2.9500000000000006      0
-13.555631387403736       -3.05                    0
-13.694240387490057       -2.9500000000000006      0
-13.69539942914669        -3.05                    0
-13.834019014093066       -2.9500000000000006      0
-13.835167470889646       -3.05                    0
-13.973797640696073       -2.95                    0
-13.9749355126326         -3.05                    0
-14.113576267289524       -2.9500000000000006      0
-14.114703554375552       -3.05                    0
-14.253354893882971       -2.9500000000000006      0
-14.254471596118506       -3.05                    0
-14.393133520485964       -2.9500000000000006      0
-14.39423963786146        -3.05                    0
-14.532912147088961       -2.9500000000000006      0
-14.534007679604416       -3.05                    0
-14.67269077368242        -2.9500000000000006      0
-14.673775721347369       -3.05                    0
-14.812469400275877       -2.95                    0
-14.813543763090323       -3.05                    0
-14.952248026878864       -2.9500000000000006      0
-14.953311804833275       -3.05                    0
-15.092026653481847       -2.9500000000000006      0
-15.093079846576227       -3.05                    0
-15.231805280075323       -2.9500000000000006      0
-15.232847888319185       -3.05                    0
-15.371583906668793       -2.9500000000000006      0
-15.372615930062135       -3.05                    0
-15.511362533271758       -2.9500000000000006      0
-15.512383971805091       -3.05                    0
-15.651141159874726       -2.9500000000000006      0
-15.652152013548044       -3.05                    0
-15.790919786468194       -2.95                    0
-15.791920055290998       -3.05                    0
-15.930698413061661       -2.9500000000000006      0
-15.931688097033952       -3.05                    0
-16.070477039664652       -2.9500000000000006      0
-16.071456138776906       -3.05                    0
-16.210255666267642       -2.9500000000000006      0
-16.21122418051986        -3.05                    0
-16.350034292861086       -2.9500000000000006      0
-16.350992222262814       -3.05                    0
-16.48981291945453        -2.9500000000000006      0
-16.490760264005768       -3.05                    0
-16.62959154605754        -2.95                    0
-16.630528305748722       -3.05                    0
-16.769370172660544       -2.95                    0
-16.770296347491676       -3.05                    0
-16.90914879925398        -2.95                    0
-16.910064389234627       -3.05                    0
-17.048927425847417       -2.95                    0
-17.049832430977585       -3.05                    0
-17.18870605245042        -2.9500000000000006      0
-17.189600472720535       -3.05                    0
-17.328484679053425       -2.95                    0
-17.32936851446349        -3.05                    0
-17.46826330564687        -2.9500000000000006      0
-17.469136556206443       -3.05                    0
-17.608041932240322       -2.9500000000000006      0
-17.608904597949397       -3.05                    0
-17.74782055884332        -2.9500000000000006      0
-17.74867263969235        -3.05                    0
-17.887599185446312       -2.9500000000000006      0
-17.888440681435306       -3.05                    0
-18.02737781203976        -2.9500000000000006      0
-18.02820872317826        -3.05                    0
-18.16715643863321        -2.95                    0
-18.167976764921214       -3.05                    0
-18.30693506523621        -2.9500000000000006      0
-18.307744806664168       -3.05                    0
-18.446713691839207       -2.9500000000000006      0
-18.447512848407122       -3.05                    0
-18.586492318432647       -2.95                    0
-18.587280890150076       -3.05                    0
-18.726270945026087       -2.95                    0
-18.72704893189303        -3.05                    0
-18.866049571629098       -2.95                    0
-18.866816973635984       -3.05                    0
-19.005828198232106       -2.9500000000000006      0
-19.00658501537894        -3.05                    0
-19.145606824825542       -2.9500000000000006      0
-19.146353057121893       -3.05                    0
-19.285385451418975       -2.9500000000000006      0
-19.286121098864847       -3.05                    0
-19.425164078021986       -2.9500000000000006      0
-19.4258891406078         -3.05                    0
-19.56494270462499        -2.9500000000000006      0
-19.56565718235075        -3.05                    0
-19.704721331218426       -2.9500000000000006      0
-19.70542522409371        -3.05                    0
-19.844499957811863       -2.95                    0
-19.84519326583666        -3.05                    0
-19.984278584414874       -2.95                    0
-19.984961307579617       -3.05                    0
-20.124057211017877       -2.95                    0
-20.124729349322568       -3.05                    0
-20.263835837611317       -2.95                    0
-20.26449739106552        -3.05                    0
-20.403614464204757       -2.9500000000000006      0
-20.404265432808476       -3.05                    0
-20.54339309080777        -2.95                    0
-20.54403347455143        -3.05                    0
-20.683171717410776       -2.95                    0
-20.683801516294384       -3.05                    0
-20.822950344004205       -2.9500000000000006      0
-20.823569558037338       -3.05                    0
-20.962728970597638       -2.9500000000000006      0
-20.963337599780292       -3.05                    0
-21.10250759720066        -2.95                    0
-21.103105641523246       -3.05                    0
-21.24228622380368        -2.9500000000000006      0
-21.2428736832662         -3.05                    0
-21.382064850397107       -2.95                    0
-21.38264172500915        -3.05                    0
-21.521843476990533       -2.9500000000000006      0
-21.52240976675211        -3.05                    0
-21.66162210359355        -2.9500000000000006      0
-21.662177808495066       -3.05                    0
-21.80140073019657        -2.9500000000000006      0
-21.801945850238013       -3.05                    0
-21.941179356789995       -2.9500000000000006      0
-21.941713891980967       -3.05                    0
-22.08095798338342        -2.95                    0
-22.081481933723925       -3.05                    0
-22.22073660998645        -2.95                    0
-22.221249975466876       -3.05                    0
-22.360515236589475       -2.95                    0
-22.36101801720983        -3.05                    0
-22.500293863182883       -2.9500000000000006      0
-22.500786058952784       -3.05                    0
-22.640072489776287       -2.95                    0
-22.640554100695738       -3.05                    0
-22.77985111637933        -2.95                    0
-22.780322142438692       -3.05                    0
-22.919629742982373       -2.95                    0
-22.920090184181646       -3.05                    0
-23.05940836957578        -2.95                    0
-23.0598582259246         -3.05                    0
-23.19918699616919        -2.9500000000000006      0
-23.199626267667554       -3.05                    0
-23.33896562277223        -2.95                    0
-23.33939430941051        -3.05                    0
-23.478744249375268       -2.95                    0
-23.47916235115346        -3.05                    0
-23.618522875968676       -2.95                    0
-23.618930392896416       -3.05                    0
-23.75830150256208        -2.95                    0
-23.75869843463937        -3.05                    0
-23.898080129165123       -2.95                    0
-23.898466476382325       -3.05                    0
-24.037858755768166       -2.9500000000000006      0
-24.03823451812528        -3.05                    0
-24.177637382361556       -2.9500000000000006      0
-24.178002559868233       -3.05                    0
-24.31741600895495        -2.95                    0
-24.317770601611187       -3.05                    0
-24.457194635558004       -2.95                    0
-24.457538643354138       -3.05                    0
-24.59697326216106        -2.9500000000000006      0
-24.597306685097095       -3.05                    0
-24.736751888754455       -2.95                    0
-24.73707472684005        -3.05                    0
-24.87653051534785        -2.95                    0
-24.876842768583          -3.05                    0
-25.01630914195089        -2.95                    0
-25.016610810325957       -3.05                    0
-25.156087768553938       -2.95                    0
-25.15637885206891        -3.05                    0
-25.295866395147343       -2.95                    0
-25.296146893811862       -3.05                    0
-25.435645021740743       -2.95                    0
-25.435914935554816       -3.05                    0
-25.575423648343794       -2.9500000000000006      0
-25.57568297729777        -3.05                    0
-25.715202274946847       -2.95                    0
-25.71545101904073        -3.05                    0
-25.854980901540227       -2.95                    0
-25.85521906078368        -3.05                    0
-25.994759528133613       -2.95                    0
-25.994987102526636       -3.05                    0
-26.134538154736674       -2.9500000000000006      0
-26.13475514426959        -3.05                    0
-26.274316781339728       -2.95                    0
-26.274523186012537       -3.05                    0
-26.414095407933118       -2.95                    0
-26.41429122775549        -3.05                    0
-26.553874034526505       -2.95                    0
-26.55405926949845        -3.05                    0
-26.69365266112957        -2.95                    0
-26.693827311241403       -3.05                    0
-26.83343128773263        -2.95                    0
-26.833595352984354       -3.05                    0
-26.973209914326006       -2.95                    0
-26.97336339472731        -3.05                    0
-27.112988540919385       -2.95                    0
-27.113131436470262       -3.05                    0
-27.25276716752245        -2.95                    0
-27.252899478213216       -3.05                    0
-27.392545794125517       -2.95                    0
-27.39266751995617        -3.05                    0
-27.532324420718908       -2.95                    0
-27.532435561699124       -3.05                    0
-27.672103047312298       -2.95                    0
-27.67220360344208        -3.05                    0
-27.81188167391535        -2.95                    0
-27.811971645185036       -3.05                    0
-27.951660300518412       -2.95                    0
-27.951739686927983       -3.05                    0
-28.091438927111795       -2.95                    0
-28.09150772867094        -3.05                    0
-28.231275770413895       -3.05                    0
-28.23121755370518        -2.95                    0
-28.370996180308243       -2.95                    0
-28.37104381215685        -3.05                    0
-28.510811853899803       -3.05                    0
-28.51077480691131        -2.95                    0
-28.650579895642757       -3.05                    0
-28.650553433504683       -2.95                    0
-28.790332060098063       -2.95                    0
-28.790347937385715       -3.05                    0
-28.93011597912866        -3.05                    0
-28.930110686701134       -2.95                    0
-29.069884020871623       -3.05                    0
-29.069889313304216       -2.95                    0
-29.20966793989759        -2.95                    0
-29.209652062614573       -3.05                    0
-29.349420104357527       -3.05                    0
-29.34944656649096        -2.95                    0
-29.48918814610048        -3.05                    0
-29.489225193094025       -2.95                    0
-29.628956187843436       -3.05                    0
-29.629003819697093       -2.95                    0
-29.768724229586386       -3.05                    0
-29.768782446290494       -2.95                    0
-29.90849227132934        -3.05                    0
-29.90856107288388        -2.95                    0
-30.048260313072294       -3.05                    0
-30.04833969948692        -2.95                    0
-30.188028354815255       -3.05                    0
-30.188118326089953       -2.95                    0
-30.327796396558206       -3.05                    0
-30.327896952683375       -2.95                    0
-30.46756443830116        -3.05                    0
-30.467675579276797       -2.95                    0
-30.607332480044114       -3.05                    0
-30.60745420587982        -2.95                    0
-30.74710052178706        -3.05                    0
-30.747232832482833       -2.95                    0
-30.88686856353002        -3.05                    0
-30.88701145907626        -2.95                    0
-31.026636605272973       -3.05                    0
-31.02679008566968        -2.95                    0
-31.166404647015924       -3.05                    0
-31.166568712272714       -2.95                    0
-31.306172688758878       -3.05                    0
-31.306347338875756       -2.95                    0
-31.445940730501835       -3.05                    0
-31.44612596546915        -2.95                    0
-31.585708772244786       -3.05                    0
-31.585904592062548       -2.95                    0
-31.72547681398774        -3.05                    0
-31.725683218665594       -2.95                    0
-31.865244855730694       -3.05                    0
-31.865461845268644       -2.95                    0
-32.00501289747365        -3.05                    0
-32.00524047186204        -2.9500000000000006      0
-32.1447809392166         -3.05                    0
-32.14501909845543        -2.95                    0
-32.284548980959556       -3.05                    0
-32.28479772505848        -2.9500000000000006      0
-32.42431702270251        -3.05                    0
-32.42457635166152        -2.95                    0
-32.564085064445464       -3.05                    0
-32.56435497825492        -2.95                    0
-32.70385310618842        -3.05                    0
-32.704133604848316       -2.95                    0
-32.84362114793137        -3.05                    0
-32.84391223145136        -2.95                    0
-32.98338918967433        -3.05                    0
-32.983690858054416       -2.95                    0
-33.12315723141728        -3.05                    0
-33.12346948464781        -2.95                    0
-33.262925273160235       -3.05                    0
-33.26324811124121        -2.95                    0
-33.40269331490319        -3.05                    0
-33.40302673784425        -2.95                    0
-33.54246135664614        -3.05                    0
-33.5428053644473         -2.95                    0
-33.6822293983891         -3.05                    0
-33.68258399104071        -2.95                    0
-33.82199744013205        -3.05                    0
-33.82236261763412        -2.95                    0
-33.961765481875005       -3.05                    0
-33.96214124423714        -2.95                    0
-34.10153352361796        -3.05                    0
-34.10191987084016        -2.95                    0
-34.24130156536091        -3.05                    0
-34.241698497433596       -2.95                    0
-34.38106960710387        -3.05                    0
-34.381477124027036       -2.95                    0
-34.52083764884682        -3.05                    0
-34.52125575063005        -2.95                    0
-34.660605690589776       -3.05                    0
-34.66103437723306        -2.95                    0
-34.80037373233272        -3.05                    0
-34.800813003826484       -2.95                    0
-34.94014177407568        -3.05                    0
-34.9405916304199         -2.95                    0
-35.07990981581864        -3.05                    0
-35.08037025702293        -2.95                    0
-35.219677857561585       -3.05                    0
-35.220148883625946       -2.95                    0
-35.35944589930454        -3.05                    0
-35.359927510219386       -2.95                    0
-35.4992139410475         -3.05                    0
-35.499706136812826       -2.95                    0
-35.63898198279045        -3.05                    0
-35.63948476341583        -2.95                    0
-35.77875002453341        -3.05                    0
-35.779263390018826       -2.95                    0
-35.918518066276356       -3.05                    0
-35.919042016612266       -2.95                    0
-36.05828610801931        -3.05                    0
-36.058820643205706       -2.95                    0
-36.19805414976227        -3.05                    0
-36.19859926980872        -2.95                    0
-36.33782219150522        -3.05                    0
-36.338377896411714       -2.95                    0
-36.47759023324817        -3.05                    0
-36.478156523005154       -2.95                    0
-36.61735827499113        -3.05                    0
-36.617935149598594       -2.9500000000000006      0
-36.75712631673408        -3.05                    0
-36.757713776201605       -2.95                    0
-36.896894358477034       -3.05                    0
-36.897492402804616       -2.9500000000000006      0
-37.036662400219996       -3.05                    0
-37.03727102939805        -2.9500000000000006      0
-37.17643044196294        -3.05                    0
-37.17704965599149        -2.95                    0
-37.3161984837059         -3.05                    0
-37.3168282825945         -2.9500000000000006      0
-37.45596652544885        -3.05                    0
-37.45660690919752        -2.95                    0
-37.595734567191805       -3.05                    0
-37.596385535790944       -2.95                    0
-37.73550260893476        -3.05                    0
-37.736164162384355       -2.95                    0
-37.87527065067771        -3.05                    0
-37.87594278898741        -2.95                    0
-38.01503869242067        -3.05                    0
-38.01572141559045        -2.95                    0
-38.154806734163614       -3.05                    0
-38.15550004218383        -2.95                    0
-38.294574775906575       -3.05                    0
-38.2952786687772         -2.95                    0
-38.43434281764953        -3.05                    0
-38.43505729538029        -2.95                    0
-38.574110859392476       -3.05                    0
-38.57483592198338        -2.95                    0
-38.71387890113544        -3.05                    0
-38.71461454857673        -2.95                    0
-38.85364694287839        -3.05                    0
-38.8543931751701         -2.95                    0
-38.99341498462134        -3.05                    0
-38.99417180177319        -2.95                    0
-39.1331830263643         -3.05                    0
-39.133950428376274       -2.95                    0
-39.27295106810725        -3.05                    0
-39.273729054969635       -2.9500000000000006      0
-39.4127191098502         -3.05                    0
-39.41350768156299        -2.95                    0
-39.55248715159316        -3.05                    0
-39.5532863081661         -2.9500000000000006      0
-39.69225519333611        -3.05                    0
-39.693064934769204       -2.95                    0
-39.83202323507906        -3.05                    0
-39.83284356136253        -2.9500000000000006      0
-39.971791276822024       -3.05                    0
-39.97262218795586        -2.9500000000000006      0
-40.11155931856497        -3.05                    0
-40.112400814558995       -2.95                    0
-40.251327360307926       -3.05                    0
-40.25217944116214        -2.95                    0
-40.39109540205088        -3.05                    0
-40.39195806775543        -2.95                    0
-40.530863443793834       -3.05                    0
-40.53173669434873        -2.9500000000000006      0
-40.670631485536795       -3.05                    0
-40.67151532095189        -2.95                    0
-40.81039952727974        -3.05                    0
-40.81129394755505        -2.95                    0
-40.950167569022696       -3.05                    0
-40.95107257414831        -2.95                    0
-41.08993561076566        -3.05                    0
-41.09085120074157        -2.95                    0
-41.229703652508604       -3.05                    0
-41.23062982734475        -2.95                    0
-41.36947169425156        -3.05                    0
-41.37040845394793        -2.95                    0
-41.50923973599452        -3.05                    0
-41.5101870805412         -2.9500000000000006      0
-41.64900777773747        -3.05                    0
-41.64996570713447        -2.9500000000000006      0
-41.78877581948042        -3.05                    0
-41.78974433373764        -2.95                    0
-41.928543861223375       -3.05                    0
-41.929522960340805       -2.95                    0
-42.06831190296633        -3.05                    0
-42.06930158693407        -2.95                    0
-42.20807994470928        -3.05                    0
-42.20908021352733        -2.95                    0
-42.34784798645224        -3.05                    0
-42.3488588401305         -2.95                    0
-42.48761602819519        -3.05                    0
-42.488637466733664       -2.95                    0
-42.627384069938145       -3.05                    0
-42.62841609332694        -2.95                    0
-42.7671521116811         -3.05                    0
-42.76819471992022        -2.95                    0
-42.90692015342405        -3.05                    0
-42.90797334652338        -2.95                    0
-43.046688195167          -3.05                    0
-43.047751973126545       -2.95                    0
-43.18645623690996        -3.05                    0
-43.187530599724646       -2.9499999999999997      0
-43.326224278652916       -3.05                    0
-43.327309226322754       -2.95                    0
-43.46599232039586        -3.05                    0
-43.467087852920855       -2.95                    0
-43.605760362138824       -3.05                    0
-43.60686647951897        -2.95                    0
-43.74552840388178        -3.05                    0
-43.74664510611707        -2.95                    0
-43.885296445624725       -3.05                    0
-43.88642373271519        -2.95                    0
-44.025064487367686       -3.05                    0
-44.02620235931329        -2.95                    0
-44.16483252911063        -3.05                    0
-44.1659809859114         -2.95                    0
-44.30460057085359        -3.05                    0
-44.305759612509505       -2.95                    0
-44.44436861259655        -3.05                    0
-44.44553823910761        -2.9500000000000006      0
-44.584136654339495       -3.05                    0
-44.585316865705714       -2.95                    0
-44.72390469608246        -3.05                    0
-44.72509549230383        -2.9500000000000006      0
-44.86367273782541        -3.05                    0
-44.86487411890194        -2.95                    0
-45.00344077956836        -3.05                    0
-45.004652745500046       -2.9500000000000006      0
-45.14320882131132        -3.05                    0
-45.144431372098154       -2.95                    0
-45.28297686305427        -3.05                    0
-45.28420999869626        -2.9500000000000006      0
-45.42274490479722        -3.05                    0
-45.42398862529436        -2.95                    0
-45.56251294654018        -3.05                    0
-45.56376725189247        -2.9500000000000006      0
-45.70228098828313        -3.05                    0
-45.70354587849058        -2.95                    0
-45.84204903002608        -3.05                    0
-45.84332450508869        -2.95                    0
-45.98181707176904        -3.05                    0
-45.983103131686796       -2.95                    0
-46.12158511351199        -3.05                    0
-46.12288175828491        -2.95                    0