% Model:              VLR_3_01V03.mph
% Version:            COMSOL 5.5.0.292
% Date:               Jun 28 2020, 18:47
% Dimension:          2
% Nodes:              2170
% Expressions:        1
% Description:        Electric potential
% Length unit:        cm
% x                       y                        V2 (V)
-1.5524059145485165       -0.7238721497441369      9.520439699563925+0.2042349580160622i
-1.2990322911339665       -0.750010070993209       9.951938629933958+0.28548899189611776i
-1.409536313227687        -0.5130374076931423      9.967167055387165+0.19497867466319752i
-1.4036080168831755       -0.9819155577643657      9.339094582454763+0.2769429305215177i
-1.149063052439335        -0.9641857194123948      9.938128067293734+0.36771777796800365i
-1.6548741720547302       -0.44393074704101804     9.708901983694458+0.1251768384953711i
-1.4772109886979958       -0.2604759007468612      9.98335484974965+0.09890179043488236i
-1.7069790507670872       -0.15013188519544104     9.902119465407552+0.04231723535814136i
-1.5                      0                        10.00003159733112+3.727157273618811E-6i
-1.7067284642166485       0.1495981453223268       10.097490516602816-0.042175808201538094i
-1.4772106593504082       0.26047776853607507      10.016708479510491-0.09889513256888231i
-1.2128053684279931       -1.210475665252934       9.169926097782339+0.3410119935409622i
-0.9642335055494975       -1.1490229531109146      9.926164104331585+0.43908110813455486i
-0.984871002134531        -1.4027654964664409      9.021177383709784+0.39469679641168604i
-0.7500124149660692       -1.2990309378135554      9.916418923533142+0.49730287458723393i
-0.7264768500220085       -1.5532027317483041      8.89909570374445+0.4362835327800561i
-0.5130398575996976       -1.4095354215180553      9.909218056497052+0.5403764726817383i
-1.652846685068397        0.4443358403186744       10.289564093831698-0.12559379199955278i
-1.4095354215180553       0.5130398575996976       10.032896355587901-0.19497250755617782i
-1.5496650950598807       0.7233493210872718       10.474790945193407-0.20482116954566712i
-1.2990309378135554       0.7500124149660692       10.048124847234037-0.28548323874552356i
-0.4456029004686389       -1.6554908591752733      8.81677882360654+0.4649070251021949i
-0.26047776853607507      -1.4772106593504082      9.904800118305133+0.5668254852619519i
-1.402285870302684        0.9817357673651785       10.65814148449381-0.2773295213241778i
-1.1490229531109146       0.9642335055494975       10.061938483717467-0.3677302175867692i
-0.1512456873626022       -1.709036903422271       8.767074801242801+0.47889646916692946i
0                         -1.5                     9.90330250570203+0.5757887387644954i
-1.209900453470178        1.2099233421588134       10.822793045269856-0.34198415113032987i
-0.9641857194123948       1.149063052439335        10.073902066437562-0.43909146940897714i
0.14938115091952603       -1.7075929720758634      8.77488676441468+0.4795604207984252i
0.2604759007468612        -1.4772109886979958      9.904800242022697+0.5668244905539612i
-0.9820219505364608       1.4031714896718206       10.97485931911887-0.39551127855310636i
-0.750010070993209        1.2990322911339665       10.083644928811953-0.4972991783328264i
0.44490721232479546       -1.6548060110307268      8.820717053830956+0.4652587267348601i
0.5130374076931423        -1.409536313227687       9.909218394028594+0.5403741879632371i
-0.7230202927522164       1.5508715451924093       11.085773046122073-0.43778423732424177i
-0.5130374076931423       1.409536313227687        10.090845920316948-0.5403736999295292i
0.7230009425561288        -1.5483435969433603      8.924897206354322+0.43846679906609864i
0.750010070993209         -1.2990322911339665      9.916419410407299+0.497299360320351i
-0.44350033854644294      1.6540162297210381       11.17417533634507-0.46576783303815134i
-0.2604759007468612       1.4772109886979958       10.095264067167776-0.5668238319503318i
0.9797890684979246        -1.4005615762650554      9.038647080625827+0.3966347531708527i
0.9641857194123948        -1.149063052439335       9.926162324969503+0.4390912838677034i
-0.15006843148768673      1.708317831692693        11.228993065614882-0.479242457858497i
0                         1.5                      10.096761842929366-0.5757882378461582i
1.2086818805238357        -1.209423413405714       9.181109431877902+0.3424092982194748i
1.1490229531109146        -0.9642335055494975      9.93812598967458+0.36772948825802726i
0.1502129325193976        1.7084787659481564       11.229857616941812-0.4791700570216491i
0.2604733176110247        1.4772114441787627       10.095264271475335-0.5668252217722303i
1.401049533233359         -0.9821557226000792      9.343377429182082+0.27773549030097494i
1.2990309378135554        -0.7500124149660692      9.951939630983379+0.2854823319549878i
0.44553474415256367       1.6556002568533537       11.183718986838267-0.46488041487818776i
0.5130308300018143        1.4095387073321717       10.090846423065283-0.5403767383653991i
1.5542025803939876        -0.7245880689361576      9.516788710784036+0.20390314419430675i
1.4095354215180553        -0.5130398575996976      9.967168176991876+0.194971262930744i
0.7246777166311112        1.5505870701088695       11.087213608372805-0.43743790862867754i
0.7500003944253057        1.2990378779550218       10.08364580304317-0.49730470976391344i
1.6530999733090226        -0.4429791694650938      9.711508337486778+0.12522668682000074i
1.4772106593504082        -0.26047776853607507     9.983356048142744+0.09889391451475642i
0.982622498612517         1.4014767171672964       10.970077047246702-0.3956038307832354i
0.9641816539097096        1.149066463814838        10.073903047128088-0.4390975144219653i
1.2124175392424283        1.209081225467874        10.825528206401712-0.3412026781767172i
1.149066861522912         0.964181179939686        10.061936009580247-0.3677159024253523i
1.7062907179271811        -0.1502426703760007      9.90229754556583+0.04237962607104929i
1.5                       0                        10.000032929399785-4.8886651476102595E-6i
1.7042244502685173        0.1495444210497112       10.096633535690268-0.042308248649225784i
1.4772116647960043        0.2604720664305813       10.016709402336446-0.09890124800828697i
1.4022216739196285        0.9789000293039779       10.652332538020163-0.27715984158498563i
1.2990382497578632        0.7499997504439765       10.04812513405254-0.28548534834355066i
1.5486976698882025        0.7210191644266362       10.470147933203256-0.2046767789174975i
1.409539002854417         0.5130300180614935       10.03289694680918-0.19497654223398028i
1.6515122033572722        0.44256218673752645      10.286658539345632-0.12539082307713365i
-0.9965377364775745       -0.5119901962187896      9.96218152910425+0.2228744790275737i
-1.2008663059005218       -0.49791577134374276     9.963272750449985+0.21629412544317975i
-1.0807815042536755       -0.722434315397021       9.946633008136946+0.3143891369830096i
-1.2748903559257052       -0.2542726496649377      9.981279250180137+0.11030035166478076i
-1.0319755508591002       -0.2986993336941238      9.977958664822706+0.1299468661732205i
-1.127842537973944        -0.10191755939636227     9.992505279377205+0.04429422355954897i
-1.3                      0                        10.00003158438597+3.7025167475037457E-6i
-0.9192376674108731       -0.9192399636727167      9.931991807650807+0.4008557308054268i
-0.8319228040530704       -0.666498582512621       9.950702055861441+0.29062899936309133i
-0.7189976595822637       -0.8618054782722095      9.936190846679727+0.37627628553380654i
-0.7224316832899383       -1.080783263646725       9.919923019262503+0.4722507182938041i
-1.0664996676627645       0.10472812591542703      10.007768677784727-0.04553698327859491i
-1.2748902800748012       0.25427302997131845      10.01878397364247-0.1102932417739797i
-1.062896677181684        0.3387977857500095       10.02506337931229-0.14734578683255442i
-1.2008674665427264       0.49791297211385643      10.036790329268882-0.21628597163981045i
-0.49791297211385643      -1.2008674665427264      9.91091534548196+0.5256087602372986i
-0.510399172809512        -0.9339474656970057      9.930780564697104+0.4083342657436924i
-0.3309785191594261       -1.0518819784006919      9.921979117772366+0.46037356452217504i
-0.25427302997131845      -1.2748902800748012      9.905344779292554+0.5586357299070036i
0                         -1.3                     9.903446947935539+0.5698892032500859i
-0.10538155234965872      -1.0659210831003534      9.920910080234492+0.4667440525357544i
-1.080783263646725        0.7224316832899383       10.053430162361128-0.314381638950825i
-0.9395818995731745       0.5163281894979804       10.038216357579062-0.22487596784673594i
-0.8531621289884193       0.7147457534798374       10.05293015194292-0.3116437402427626i
-0.9192399636727167       0.9192376674108731       10.068071530696633-0.40084914401267097i
0.09303996630995835       -1.109229376845453       9.917686668556538+0.4857807848096563i
0.2542726496649377        -1.2748903559257052      9.90534501780057+0.5586342798816917i
-0.722434315397021        1.0807815042536755       10.08014051308758-0.47224534656476597i
-0.6753386092608932       0.8357571304674056       10.061952396151876-0.3649755401263843i
0.49791577134374276       -1.2008663059005218      9.910915921547822+0.5256050831362459i
0.30441895262960145       -1.0265167154650547      9.923861686681105+0.44926849070261415i
-0.5126260877670702       0.9848384949288346       10.07306377494649-0.43064107046204436i
-0.49791577134374276      1.2008663059005218       10.089148410646072-0.5256047768070541i
0.5084580515760682        -0.9864169887835698      9.926882234621322+0.43134212047299797i
0.722434315397021         -1.0807815042536755      9.919923851568711+0.4722452479622213i
-0.2542726496649377       1.2748903559257052       10.094719268293359-0.5586337446814121i
-0.3053391794608046       1.0335196511967168       10.076723307726299-0.4523417460367332i
0.9192399636727167        -0.9192376674108731      9.931992849160688+0.4008486356376633i
0.6368844629499694        -0.8395735824827906      9.937818749121972+0.3667307881654878i
-0.10393032726764048      1.1209472354201107       10.083249206257644-0.49092620076712706i
0                         1.3                      10.09661737876218-0.5698886420512821i
1.080783263646725         -0.7224316832899383      9.946634288217682+0.3143807782144685i
0.8095056677279252        -0.6838518544522508      9.949411314442019+0.298252767197716i
0.2542774865505297        1.274889391215389        10.094719431693948-0.5586346078530606i
0.10931980786731789       1.064593217881322        10.079055206246771-0.4661582574621978i
1.2008674665427264        -0.49791297211385643     9.96327418462999+0.2162848591087606i
0.9467820609760702        -0.5052548130729154      9.962669118524516+0.22003416349321633i
0.3316141418675122        1.0762888869531588       10.079900491636321-0.471090939083911i
0.4979217638008312        1.2008638212276481       10.089148603999432-0.5256061739974541i
0.7224441620852138        1.0807749222983452       10.08014063099855-0.47224623760370715i
0.506476331786558         0.9410708427980866       10.069813773425766-0.41146384319455437i
1.0596055206129462        -0.3394856756542466      9.974949687981548+0.14764926414306204i
1.2748902800748012        -0.25427302997131845     9.9812805571576+0.11029204119297314i
0.7153895190447785        0.8566739894903068       10.063493780931635-0.37403895967172895i
0.9192416125180489        0.9192360185584644       10.068072226269464-0.40085358603446314i
1.0807768060422045        0.7224413440004743       10.053431902217405-0.3143922572423279i
0.8313272910502476        0.6678774959315521       10.049464634264472-0.2912324938922584i
0.9847230645340913        0.5050330166939598       10.03737107037289-0.21986795110934532i
1.2008648344332253        0.4979193201932035       10.036791964283882-0.2162961737888834i
1.3                       0                        10.00003293129227-4.798625342152533E-6i
1.0610299183128573        -0.12096244923492275     9.99109612857057+0.05259865310353933i
1.1000394500664892        0.08964047751280829      10.0066537642601-0.03897052553917281i
1.2748898793617054        0.2542750390838555       10.018785411274171-0.11030225576449333i
1.0224128903168839        0.29599006887008583      10.021906938583337-0.1287806264785577i
-7.616736377532125        -4.607826820330119       5.489363602675902+0.010087420354031753i
-8                        -4.411764705882353       5.570289347893187+0.010050304789408878i
-8                        -5                       5.4874090837682585+0.010085521600622269i
-7.409780872709702        -5                       5.403222549317921+0.010114483599957622i
-4.204366953834539        -4.046139260378091       1.3303584497478076+0.005035483596177746i
-4.232237279915185        -4.1589911201886105      1.4253915309458682+0.004989586585308702i
-4.120345401946956        -4.121479299950651       0.9697031069045847+0.0034985075639320435i
-4.108864207601654        -4.272742039557807       1.0976142520739367+0.0036531598718408695i
-4.029407492651005        -4.167878535113899       0.6904088527433897+0.0023853577099564828i
-3.985288701048193        -4.240945246135913       0.7190201503725495+0.0023895948549409085i
-3.97050777952416         -4.346238309204156       0.8521414740483632+0.0027488025429096524i
-3.885124863444233        -4.26364124779026        0.5654958609002577+0.0018384438310090833i
-3.857295901216056        -4.371250633139662       0.686333052294308+0.002185173409171942i
-4.109818010135056        -4.00125778754426        0.8822888506880414+0.0035741197347854887i
-4.2079785223633985       -3.9409470314037005      1.4622787464645137+0.0060036374709045845i
-4.282547732630158        -3.9945463940077484      1.6872088166587438+0.006454212425329116i
-4.295226155595897        -4.072975911866771       1.6692081989462753+0.006061196632277335i
-4.238152868086963        -4.442894222850899       1.5405178395009178+0.0048471314845469834i
-4.327663335341751        -4.29376222177309        1.733062901389898+0.005650523487183645i
-4.45660895849616         -4.480075252290495       2.0513282551118053+0.0062445371664014105i
-4.350610009399203        -4.148895078267138       1.8177048541354168+0.00626196276716984i
-4.319807005710448        -3.902143691804157       1.9448852626890172+0.007744597693310429i
-4.217453584604731        -3.8471990317750118      1.6937075717950896+0.007408385496539812i
-4.119864337316433        -3.896130124955415       1.1605371323365554+0.005241754461810692i
-4.137894585526493        -3.807833980176441       1.512196122590469+0.007220736254108491i
-7.5665795113541865       -4.12492360225306        5.627182913984364+0.010038041816592734i
-8                        -3.823529411764707       5.814370072566558+0.009906225231755508i
-7.106784588513753        -4.4971487373771755      5.357941642943866+0.010150937481161212i
-6.819561745419405        -5                       5.1458148777402535+0.010157612238728776i
-4.92831069414149         -4.721544073408758       2.964368461614846+0.008081609820860312i
-5.091676632715828        -5                       3.225130600157095+0.008466983497725589i
-4.755000817225451        -5                       2.6251555719162316+0.007292846999555617i
-4.578969703948168        -4.74532683962864        2.29637381510541+0.006616840554784675i
-4.7529778622236325       -4.454080175041934       2.693939454255602+0.00782278865306804i
-5.4376934553489455       -5                       3.767006113579045+0.009284311973441275i
-5.274718954393459        -4.700674460073382       3.553212838702141+0.009084056215305813i
-6.513020623486308        -4.571184349940596       4.991679969134+0.01020456103656877i
-6.267356903828639        -5                       4.735562551916285+0.010090074715085284i
-6.034647045827427        -4.624451174788158       4.553691173444919+0.010081512464393773i
-5.80700941501795         -5                       4.254205446929491+0.009799955530365232i
-5.658180276293446        -4.670411326054771       4.106289394547883+0.009750387769450109i
-3.756133859145398        -4.309217615129297       0.47091677501695006+0.0014982770585728262i
-4.068196984942857        -4.481597730750499       1.1841962943892288+0.003721239050429793i
-3.908004727408345        -4.454644956996296       0.861229957274535+0.0027151416826577198i
-4.22943085405239         -4.686293869882605       1.5942784382274209+0.0048126315224228935i
-4.4185160951638345       -5                       1.9833647919409254+0.005770583013634423i
-3.7668377635155936       -4.48300657672766        0.68215259368894+0.0021342554982808366i
-4                        -4.05                    0
-3.9325391620199124       -4.154226099013447       0.3956888255006028+0.0013323172554913665i
-3.8102938906643686       -4.16627911208888        0.2745897870432845+8.933196859787236E-4i
-3.6812277065437056       -4.186203934781858       0.22506030124529539+7.17202379671289E-4i
-4                        -3.95                    0
-4.4063688022003955       -4.016307706492266       2.0785324413076327+0.007508528911699848i
-4.525468127196828        -4.204585424820463       2.279782299784897+0.007378549116437671i
-4.453366715566146        -3.8408491572031753      2.4383910631280092+0.009361828427418893i
-4.324045499028217        -3.7729569287948816      2.200513813198721+0.009374609165994157i
-4.206889101127566        -3.7391155717274605      1.938393606911278+0.009119302236721407i
-4.045760997469033        -3.8258607783064953      1.1117494051338446+0.005736935132899467i
-4.099504907114701        -3.730864394117824       1.6492930425148364+0.008539204159020397i
-7.5548084802909425       -3.5454445628799376      5.942277244063461+0.009850604735743786i
-8                        -3.2352941176470598      6.206618632442525+0.009550522309156984i
-7.121457793946           -3.8666794108081657      5.622477149750616+0.010137236584538844i
-6.657831842239151        -4.056351832345196       5.286614855346776+0.010338535639082394i
-4.912974695321743        -4.165043877339602       3.1566691582118787+0.009291881727355305i
-5.110978435296306        -4.403718730373547       3.381829901904162+0.009144068699532255i
-5.42147423256474         -4.408372630603214       3.868236631040687+0.009742211270446844i
-6.1738410036396685       -4.170459209989412       4.858708169804566+0.010432645062648597i
-5.7492650523185835       -4.254161974153763       4.372767302124036+0.010289656394191238i
-7.538635322904318        -2.9625939235638135      6.3971632949936685+0.009403099987582585i
-8                        -2.647058823529412       6.727063528230761+0.008848229193421675i
-3.608444442043704        -4.358512768131186       0.3962123700342706+0.0012432900543489316i
-3.5422673998600835       -4.183214113341788       0.1618662000350238+5.095944522848332E-4i
-3.465218255800754        -4.283258928436856       0.23533750359671796+7.358893144302058E-4i
-3.4065378856295077       -4.171309019634796       0.11295678610881864+3.5313694934699754E-4i
-3.352725301924776        -4.2830140919057085      0.19073535112827483+5.941075400581299E-4i
-3.897255686247546        -4.667940258309948       0.9956625699548429+0.0030631952055787067i
-4.082031373102218        -5                       1.3677614240151736+0.004106840426104089i
-3.6499384048155927       -4.609192168026915       0.6396309953037197+0.0019802321159009986i
-3.2665205064378746       -4.181859442486207       0.09457272376767036+2.9427517041446545E-4i
-3.8872480222625168       -4.05                    0
-3.75460744771528         -4.05                    0
-3.6156191998333984       -4.05                    0
-3.888910435146046        -3.95                    0
-3.9347890959549834       -3.83382235683774        0.7516970800548735+0.0044443865481412536i
-4.6513419994270855       -3.939940755737006       2.801669261945282+0.009506196921721942i
-4.915203666065387        -3.87876193130393        3.409940314657283+0.010618915647159863i
-4.574145867262853        -3.7405414405168154      2.89106729017076+0.010841772538598719i
-4.4444911197678705       -3.673204419873927       2.7115325921137674+0.011189880134061421i
-4.303188851119221        -3.6347125991897093      2.459536796829228+0.011301232869662807i
-4.17323180186353         -3.621331775826774       2.1849657586475533+0.011151572839903298i
-3.99240425378645         -3.7216181928484438      1.4057628677452607+0.008141171090801966i
-4.0601186564076          -3.6187048088623017      1.9375173765086096+0.010926712960581871i
-3.4765569229167266       -4.05                    0
-3.3374946460000547       -4.05                    0
-7.086153811777265        -3.2493717768787413      6.038831478505338+0.009982001690474777i
-6.638834239457259        -3.5056971850022363      5.631180658118786+0.010493479408194303i
-6.295722963256035        -3.7776360818640478      5.199827075582194+0.010702091601320022i
-5.30568019618243         -3.9953118945581614      3.9483428867962553+0.010590311624286232i
-5.853243649416514        -3.7858630259618087      4.795203027141057+0.011039017332604692i
-7.5333758044840575       -2.3692953652626034      6.981594436131089+0.008521786983501771i
-8                        -2.0588235294117663      7.351557112704036+0.007680286985399482i
-7.06320603111765         -2.665335981848095       6.575838466016408+0.00948807884705413i
-3.398537802263006        -4.455000210638623       0.3340227098745192+0.0010373313491590876i
-3.230162973732783        -4.3367266444156085      0.185194682577158+5.748145315407066E-4i
-3.742224213565717        -5                       0.861243527425173+0.002630542053972092i
-3.4503615808955876       -4.7378307419927435      0.5095158573563077+0.0015708743489309678i
-2.9127498766644577       -4.267347377229237       0.08293058378015299+2.566380655727748E-4i
-3.0438610813146596       -4.322322261578712       0.12806321126286055+3.966111402996121E-4i
-2.8893563602358023       -4.4115198769103525      0.12716755137136285+3.932466670245516E-4i
-2.790522709033661        -4.2836183426725265      0.07229434722786661+2.235629962543069E-4i
-3.1287192658909877       -4.197483526317109       0.08261820633492233+2.5634073076270304E-4i
-2.992623192286904        -4.173432063960485       0.054847151874912174+1.6989782755536586E-4i
-3.198432369083383        -4.05                    0
-3.7584272056580588       -3.95                    0
-3.811500133668589        -3.833950633814694       0.5876063789031031+0.004065190143967806i
-3.875896405142233        -3.7138581191787896      1.2183088268194313+0.008027299804197236i
-5.057025297021474        -3.59959925046394        3.9740971667052842+0.01223078405524877i
-4.792982563088253        -3.6912625303489035      3.4095564373373555+0.011641288771118058i
-4.587338854052652        -3.5695346544339395      3.207483589677848+0.012563739519007177i
-4.413472459170227        -3.5134542662779253      2.9748906253848197+0.013192048502432717i
-4.25700312575792         -3.488212632637285       2.7256017127445644+0.013621115478886212i
-4.119385024412891        -3.4995514434805965      2.430369408715864+0.013518026281557413i
-3.9383915052152725       -3.6064430940855985      1.7467677620539976+0.01110762982351307i
-4.012641547488031        -3.5193914117542984      2.176095933296082+0.013211806453515296i
-6.599981822461516        -2.950479019750306       6.108969559306915+0.010488758426720287i
-6.1097733068813245       -3.270687247803257       5.48801822685565+0.011383258627318938i
-5.471124943908193        -3.400113229443577       4.7567486009371995+0.012464146024827743i
-5.066603744978516        -3.2512216837184784      4.469221882727971+0.014146113040460066i
-7.523540321846226        -1.7741927149497243      7.661758703669306+0.007101527697286565i
-8                        -1.4705882352941193      8.05467053433492+0.005991550264743299i
-7.055593332758077        -2.0690497579474827      7.238519462742363+0.008415094612944289i
-6.585776144922518        -2.3606803217328474      6.755354474614648+0.009944759354339817i
-2.716197677974097        -4.416540628075763       0.09633857881419784+2.9773870749618005E-4i
-2.6726524749444054       -4.272457814102248       0.05665046196296016+1.751146174778014E-4i
-3.131144552644642        -4.605729213160933       0.2670790003368531+8.254457726531803E-4i
-2.8247645827232963       -4.598184407874841       0.15902356326082737+4.912526657807473E-4i
-3.348227662100417        -5                       0.469924968959406+0.0014465374798482225i
-2.5451894864273035       -4.342946909110642       0.05927434123515158+1.831515223557987E-4i
-2.854232986830695        -4.163142532512611       0.03978833281501442+1.231157055494253E-4i
-2.720426087093764        -4.165834205699493       0.032512719286032936+1.00533350419059E-4i
-2.580158628805175        -4.180196040079949       0.02885030802050439+8.916685458069063E-5i
-3.059370092166711        -4.05                    0
-2.9203078152500392       -4.05                    0
-3.6193680185721444       -3.95                    0
-3.6857662585195987       -3.829396027487534       0.5305190856788559+0.004228632723030944i
-3.4801615563193646       -3.95                    0
-3.552146322147809        -3.8272552947004543      0.49167065550024563+0.004486409315620749i
-3.340955094066585        -3.95                    0
-3.412272048617581        -3.8256139593789644      0.46656384381465904+0.004846861138333423i
-3.752698769409911        -3.7041181868008413      1.1097565732738415+0.0083540084132356i
-3.8256482816876507       -3.58288546480975        1.668479496897996+0.011909803858416059i
-4.777665359924438        -3.3639686034882503      3.891214886881013+0.01423843365147548i
-4.52087772024688         -3.3808425275505996      3.448353209985291+0.014703669264211688i
-4.35646316874133         -3.3183638266996858      3.313626445531517+0.016010740514638314i
-4.181530203517027        -3.342078931990028       2.9759970481076645+0.016334402356548833i
-4.029505616406678        -3.395676182399115       2.589393664375082+0.015930630922824138i
-3.9145150673895244       -3.473201853594428       2.1755041848519334+0.014585772639191958i
-3.2017486318138046       -3.95                    0
-3.2721477082564814       -3.8222607446154413      0.45761993744448076+0.005363422181994342i
-3.0625421695610253       -3.95                    0
-3.134641611345391        -3.8219824437408025      0.4440652071808879+0.005815222401617955i
-7.523275333392846        -1.1812196355808449      8.40792940332088+0.005121050060847566i
-8                        -0.8823529411764723      8.811890681543492+0.003822852737712308i
-6.116147400613081        -2.651101605236658       6.184876653725908+0.011587117417011584i
-5.6326628007176724       -2.880646353611388       5.561506782092466+0.013230676619157528i
-5.272885612159417        -3.0174631499880014      5.045678454348147+0.014399663423974312i
-4.789915025913362        -3.061065657103048       4.438837229856442+0.016578035425991792i
-5.000662879212749        -2.950737736873445       4.867106796800228+0.016058225451849442i
-7.048448581254929        -1.4765305784824543      7.9769727433972255+0.006682647069642074i
-6.579718619509088        -1.7679667838400894      7.500968661876889+0.008593944125357111i
-6.110225431286612        -2.0540532229258024      6.9602787758019895+0.010896626600752498i
-2.523772925846976        -4.6358845118442495      0.10094282036920135+3.1176091071874636E-4i
-2.3611653586402697       -4.384970982365317       0.049342081871977576+1.5242109212398847E-4i
-2.2579612081063107       -4.54022600477923        0.057296546461330256+1.7696370958471925E-4i
-2.098737376138617        -4.418579221845025       0.03474901137747256+1.0732541718294145E-4i
-2.2203437596679403       -4.340116734434202       0.03428730620544978+1.0590827079600829E-4i
-2.8640176231357355       -5                       0.21394314265327474+6.603022754415789E-4i
-2.0936843231338793       -4.291683462984208       0.023442172944380127+7.24058779072904E-5i
-1.9612500010803307       -4.3323652860805675      0.02179147477363572+6.730374847439907E-5i
-1.639327486465272        -4.368508299976792       0.014334513522672154+4.427028123562074E-5i
-1.667774737206721        -4.27410015286507        0.01081825474786939+3.3411075005990747E-5i
-1.7813374634475905       -4.362469566394724       0.01778080844461108+5.491455851338569E-5i
-2.4446821118315762       -4.212194372934808       0.028559483742232415+8.824200636322147E-5i
-2.297436230018073        -4.204796219707661       0.021374050644423357+6.602876531465717E-5i
-2.1663536387278572       -4.190458385507158       0.015639422230941478+4.830851538425955E-5i
-2.7812455383333674       -4.05                    0
-2.6421832614166956       -4.05                    0
-2.5031209845000237       -4.05                    0
-2.9233357073082455       -3.95                    0
-2.993847156355031        -3.823669715211809       0.4279554111058195+0.006237444745514627i
-3.6248901766902133       -3.7021669346317725      1.0187001726108142+0.00872092559421891i
-3.4904198741679493       -3.7063548467044525      0.9349662868311083+0.009081170556451622i
-3.3370859161497166       -3.6971912128523403      0.9169706882353116+0.01019132122927627i
-3.6925294628378764       -3.5622188238692476      1.6021751443822418+0.013028883239671519i
-3.7808290968376457       -3.42752361253015        2.1633633912519588+0.016481053593425093i