% Model:              VLR_3_01V03.mph
% Version:            COMSOL 5.5.0.292
% Date:               Jun 28 2020, 18:48
% Dimension:          2
% Nodes:              2111
% Expressions:        1
% Description:        Electric potential
% Length unit:        cm
% x                       y                        V2 (V)
-1.8004163664931148       -0.8709195756576668      9.990968524425497+0.13100344142731168i
-1.9485514861871704       -0.45071843281340146     9.995316551959188+0.06749290969545824i
-2.2711286695848423       -0.8747719564847298      9.22873378258794+0.08124276455721637i
-2.046467396884983        -1.2391267478904204      8.94780739386291+0.11985380811705167i
-1.5629278532010311       -1.2479008476992133      9.987015121750186+0.18896030565136301i
-2                        0                        9.999949598648067+2.111609103230893E-6i
-2.3705470026855395       -0.09558455886780351     9.926411310536553+0.009449169976334867i
-1.7540388034517085       -1.620815045469213       8.569002310035161+0.15656262978042476i
-1.247879584141205        -1.5629448305949811      9.983653328359258+0.23839235341296225i
-1.9485527389473938       0.4507130168306763       10.004582542217344-0.06748836046759031i
-2.33297255542183         0.38234571399431383      10.288120626645055-0.03828705194159466i
-1.3951558306765957       -2.0178237363528684      7.904425201090403+0.17916204730136623i
-0.8708951995146321       -1.8004281578175703      9.981070177521808+0.2764100630282293i
-1.8004281578175703       0.8708951995146321       10.008930273780692-0.13099463974204237i
-2.240130279164952        0.841015944271162        10.688572184020709-0.08156706733181317i
-0.893437829419731        -2.257333045853055       7.66243896731936+0.2040041210440368i
-0.4507130168306763       -1.9485527389473938      9.979436644448462+0.30045060731820783i
-1.5629448305949811       1.247879584141205        10.012884002525958-0.188957356638082i
-2.00524718450843         1.319914428567236        11.147939612449866-0.1263965221052494i
-0.4282419230988671       -2.3386294602542383      7.747933621449225+0.22325408687489734i
0                         -2                       9.978862840917087+0.30888725784409016i
-1.2479008476992133       1.5629278532010311       10.016246479589753-0.23839800747621584i
-1.6676695755948459       1.7372967469605785       11.613801500380786-0.16374274343300546i
0.45071843281340146       -1.9485514861871704      9.979436583322158+0.3004522152730093i
0.28534007359281305       -2.3873242791641744      7.570332063977168+0.22009365792985627i
-0.8709195756576668       1.8004163664931148       10.018827719665413-0.2763953800367109i
-1.2305046342610673       2.0642248333756195       11.992657661709124-0.19367642081537875i
0.7635123449486695        -2.3433859874822907      7.401302541195606+0.20176158933666638i
0.8709195756576668        -1.8004163664931148      9.981073185202513+0.276376422503296i
-0.45071843281340146      1.9485514861871704       10.020462429209406-0.300450662353923i
-0.7376699922968597       2.3322637018127557       12.513507073082085-0.20535977094785987i
1.2385621748245428        -2.0546966244780984      8.033040863484475+0.19374495562970806i
1.2479008476992133        -1.5629278532010311      9.983653722274813+0.23838672137814623i
0                         2                        10.021036807477747-0.3088930741422611i
-0.2959654692995729       2.388345716473931        12.440326362700887-0.21957802327473266i
1.6674841773580165        -1.7295343708036461      8.410915186890419+0.1640882936395993i
1.5629448305949811        -1.247879584141205       9.987015204409253+0.18895675696198122i
0.4507130168306763        1.9485527389473938       10.020462847343977-0.3004555656444115i
0.42117855404595383       2.324765079898339        12.170627017692446-0.22613056167513465i
1.9993864451159522        -1.3176762702809124      8.86672134192514+0.12702337908901376i
1.8004281578175703        -0.8708951995146321      9.990968800170602+0.1309956100620495i
0.8708951995146321        1.8004281578175703       10.01882843706136-0.27640481892719554i
0.8985273450707841        2.2152267379033317       12.140502627832118-0.2095846375908721i
2.2151733266410645        -0.855107611891562       9.323405219400088+0.08457259585580236i
1.9485527389473938        -0.4507130168306763      9.995316414470098+0.06749043517613271i
1.247879584141205         1.5629448305949811       10.016246510155035-0.23840086839464994i
1.339822782926624         1.940968460011082        11.69217593307337-0.19251087080508644i
2.3908065775282594        -0.3640509406418806      9.695801940483998+0.03442073469242119i
2                         0                        9.999949496501506-1.6349483783893573E-6i
2.3735711161863025        0.10144736239575819      10.078265865848165-0.010008809342903128i
1.9485514861871704        0.45071843281340146      10.004582393716351-0.06749085912915649i
1.5629278532010311        1.2479008476992133       10.012884214020152-0.18896337171385044i
1.7289395692808445        1.6296898940563207       11.407244340996519-0.15957775732975213i
1.8004163664931148        0.8709195756576668       10.008930259405362-0.13099992371766542i
2.0363538861084662        1.2485134451666122       11.053743071993935-0.1212447206556289i
2.2758202281424547        0.8662661130550481       10.764798297771064-0.08034735804365523i
-1.0876451913682574       -0.11793590440138024     9.99812581377856+0.025161933782470926i
-1.3                      0                        9.999949745167763-8.154879399837298E-7i
-1.2650809307878883       -0.2992828738114655      9.9953355080405+0.06363802465262491i
-1.168571833791987        -0.5695962335444581      9.99114727629558+0.12143910141165883i
-0.989603663393737        -0.3435609994442198      9.99462842492592+0.07343139076751588i
-0.9307564128036256       -0.5991460075685171      9.990657250667004+0.1282570003683178i
-1.0150967759289806       -0.8121444055699633      9.987357847331687+0.17378893244099203i
-0.7386774312652029       -0.7491504777426241      9.98829750312096+0.16087368443994465i
-0.8121419222731038       -1.0150987627253556      9.984153760568278+0.21809151209058494i
-0.5881370555038595       -0.9213755612432625      9.985587239322664+0.19833122860081448i
-0.5695934437318141       -1.1685731936244872      9.98170499462358+0.2519660910926591i
-1.044373158320511        0.1193762403380347       10.001796552306748-0.02548355388818582i
-1.26507856435646         0.2992928766372468       10.004560398355272-0.0636015027674177i
-1.0304807626801489       0.36395759685966567      10.005582954369542-0.07773508963648532i
-1.1685731936244872       0.5695934437318141       10.008748163609365-0.12139684971898267i
-0.2992928766372468       -1.26507856435646        9.980152036191052+0.273451474704326i
-0.37156366944114244      -0.9729829184296485      9.984755171498383+0.2098471392582042i
-0.8960468413288223       0.5457288381345544       10.008415843253827-0.11685810448601879i
-1.0150987627253556       0.8121419222731038       10.012538546764407-0.17375744543354907i
-0.1423119460726423       -1.0727476423268594      9.983174245329176+0.23170297430977554i
0                         -1.3                     9.9795909398528+0.28122470345906053i
-0.7768452529697469       0.7601671044561591       10.011768116742996-0.16316672446378427i
-0.8121444055699633       1.0150967759289806       10.015744086578218-0.2180762079465969i
0.11565669798483136       -1.0359696403546224      9.983751624847082+0.22372553326947167i
0.2992828738114655        -1.2650809307878883      9.980152258221553+0.27344897091414455i
-0.5698113726457039       0.8596036791670819       10.013347309612259-0.1850083564413452i
-0.5695962335444581       1.168571833791987        10.018193490776122-0.2519584967636541i
0.34840984564260485       -1.028976271861215       9.983874403801646+0.2220177687354196i
0.5695962335444581        -1.168571833791987       9.98170603502149+0.25195414577091474i
-0.3608903885211499       1.0052254502866163       10.015650498940674-0.2168472811905599i
-0.2992828738114655       1.2650809307878883       10.019749219549567-0.2734743343423566i
0.8121444055699633        -1.0150967759289806      9.984156223926828+0.21806340922655662i
0.5145084520809705        -0.8944213621140242      9.986000655486547+0.19262787252011712i
0                         1.3                      10.020310346128307-0.28124831148837076i
-0.11316675792328162      1.0180814687334507       10.015866685326039-0.21984513379888745i
0.13100753337202814       1.070911472288787        10.016696512655326-0.2313113270099235i
0.2992928766372468        1.26507856435646         10.019746421483912-0.2734447285018373i
1.0150987627253556        -0.8121419222731038      9.98736049925063+0.17375836435249536i
0.7238892428203658        -0.7444862387406049      9.9883685678344+0.15989382994215198i
0.8876125322425666        -0.5579609863782428      9.991292231695715+0.11949697887664652i
1.1685731936244872        -0.5695934437318141      9.991150551290072+0.12140150624229033i
0.5695934437318141        1.1685731936244872       10.018193738416725-0.25196235030796343i
0.3534441297932606        0.9736174243827747       10.015155354385412-0.21000652992064864i
0.585271853213704         0.9248442575284146       10.014366549613058-0.19908717155171815i
0.8121419222731038        1.0150987627253556       10.015745482544776-0.21809293220165069i
1.0327145670548172        -0.37565673979146263     9.994135206093489+0.08023244780333658i
1.26507856435646          -0.2992928766372468      9.995338943940652+0.06359934867873711i
1.3                       0                        9.99994948357388-1.731128347377643E-7i
1.041664971457573         -0.15600911607726295     9.997535722585704+0.03330554744521941i
0.7275690370453636        0.7293005722378524       10.011293441118513-0.15661939384846038i
1.0150967759289806        0.8121444055699633       10.012541386579928-0.17379016059312904i
0.914543692196985         0.5622574395424031       10.008670838027228-0.12037626161269928i
1.168571833791987         0.5695962335444581       10.008751987878414-0.12144063941589806i
1.0707544063096703        0.08521632604171768      10.001267736142463-0.0181871832394805i
1.2650809307878883        0.2992828738114655       10.004563456004794-0.06363636287346892i
0.9733004215806192        0.3267288888087006       10.00501112013537-0.0698506797867911i
-7.616974783298779        -4.60620431792052        5.552828544497876+0.007897806346937037i
-8                        -4.411764705882353       5.633165857071572+0.007868726416350271i
-8                        -5                       5.550512415868209+0.007896431017081519i
-7.409780872709702        -5                       5.466516677478251+0.007919263224442476i
-4.755000817225451        -5                       2.670933174667965+0.005713000308958937i
-4.916668434262036        -4.707391751486714       2.9962243897733316+0.006310277049562103i
-5.091676632715828        -5                       3.2782750683616926+0.00663230372989916i
-4.590167088050777        -4.734790784160499       2.3609990830203444+0.005231387108378245i
-4.278421254673375        -3.997051890421917       1.7094432972349278+0.005004894750824559i
-4.207511638683512        -4.050927760460156       1.3734608541744702+0.003963020569935738i
-4.208111535673931        -3.9445570886893635      1.494620325081403+0.0046761134987323575i
-4.291802216375679        -4.083011431783149       1.6892434114134247+0.004677616097290474i
-4.235202489235776        -4.1615800648056975      1.4678886773582132+0.003933415909159085i
-4.240118969842217        -4.434515927590005       1.572998467023647+0.003810188169530674i
-4.113100476556932        -4.273962064162473       1.1342588097716482+0.0028967174528668916i
-4.330223355053553        -4.294105385633051       1.7757581304184085+0.0044435879132707625i
-4.446514610937091        -4.465551015265819       2.0681473141130056+0.004861715490935065i
-4.360634314232885        -4.153738394253776       1.8865890241724705+0.00496365976773359i
-4.123201787867481        -4.117912453772706       1.0005230768358724+0.0027735117004137025i
-4.028414930538705        -4.159777088971774       0.6833967617478462+0.0018183662440340183i
-3.9794290048682854       -4.240397160616326       0.7190308083605955+0.0018328513235797053i
-3.9593277040095174       -4.36198479313449        0.8672981623881196+0.002139782244845194i
-3.8691724727728403       -4.264627600789819       0.5537522488381673+0.0013790659838521305i
-3.738444316269427        -4.2797266353993155      0.4188364021371423+0.0010248253011249367i
-3.8008794025787482       -4.404298224359815       0.6592452085611334+0.0016000086346460746i
-4.077778861724629        -4.507675982924111       1.2448203894461338+0.0029909270772337762i
-3.9119033384007103       -4.48836375896079        0.9166817475402645+0.00221010498393005i
-4.251099357414965        -4.680668869503852       1.6668980399340665+0.0038644025767590674i
-4.4185160951638345       -5                       2.0196722677565364+0.00452107100141192i
-4.109551955773516        -4.00181076352716        0.9030387035546835+0.0027949580445342233i
-4.321392052417856        -3.9021538065402512      1.9990585854109284+0.006082525186735i
-4.215697109603468        -3.849056329358543       1.7293841654746116+0.0057713473529113464i
-4.118486772416171        -3.8974672782407285      1.1828309087779123+0.004072545023635928i
-4.136654062356509        -3.809997785491929       1.5460383446545758+0.0056177871779681254i
-7.567718643075409        -4.122023044909125       5.691414736011313+0.007858456705551476i
-8                        -3.823529411764707       5.8763268334892516+0.007755547711260324i
-6.819561745419405        -5                       5.209394633094397+0.007953426438130044i
-7.106985223844052        -4.4866543466909645      5.4242662031755335+0.007948077961774748i
-6.51858567949672         -4.559131332717428       5.0627047454094045+0.00799300212534069i
-6.267356903828639        -5                       4.798752113875918+0.007901245628755417i
-5.80700941501795         -5                       4.315621043492034+0.00767482003147373i
-6.039238101179623        -4.594562010244267       4.629074668802425+0.007909146718115795i
-5.260430521208299        -4.675707047204165       3.5932548790526195+0.007109359221003084i
-5.4376934553489455       -5                       3.825242704029579+0.007271847613109841i
-5.628184182771841        -4.634668620326741       4.136992418371669+0.007630241117828201i
-4.734104669590977        -4.441422564585948       2.7081755292574328+0.006085644979450415i
-5.059511259718181        -4.391251578789235       3.3552293603054584+0.007079743379572452i
-4.41335692183073         -4.014324138417936       2.149340272941624+0.005941014818756162i
-4.534772317324397        -4.207029434232531       2.348621184687478+0.005819571606990516i
-4                        -4.05                    0
-3.9257504875340543       -4.150424428047238       0.38014285033228634+9.809322909739608E-4i
-3.8109360360693603       -4.152241588763371       0.24947988291097414+6.241599107629576E-4i
-3.6778367157128113       -4.154828186475979       0.177360195120944+4.3460071045572793E-4i
-3.60633087043107         -4.250804153969835       0.27772633542266484+6.73233434594918E-4i
-3.543884451585743        -4.15598282149255        0.13274120100170017+3.21353276673248E-4i
-3.4132426993899916       -4.16495845469584        0.11072949038451729+2.661224895358135E-4i
-3.48582490630043         -4.285310958907949       0.251754274070779+6.054431310934653E-4i
-3.3589236942556453       -4.276161749807004       0.19135482213282495+4.582019577361299E-4i
-3.6001797614268667       -4.425033880320453       0.4626492116882276+0.0011110783360023958i
-3.746454910135013        -4.544738284085542       0.7211920911549515+0.00172404541483997i
-3.9459577163674817       -4.732889752654277       1.1208130387514068+0.0026334224680583827i
-4.082031373102218        -5                       1.393846391829025+0.0032185950330552524i
-3.7439832476632247       -4.726162861537472       0.8244967697928961+0.0019487560455995977i
-7.555334271713638        -3.542547050977438       6.005907532774322+0.007710477219840348i
-8                        -3.2352941176470598      6.266316608434171+0.007476478804756416i
-7.540867749704923        -2.9591681906146174      6.459297685866036+0.00735684726315223i
-8                        -2.647058823529412       6.782323870151276+0.0069259784135152725i
-4.452033899469936        -3.838374428205703       2.4976188725310284+0.007350894776025325i
-4                        -3.95                    0
-4.320737784761674        -3.7769511722412976      2.241143976404826+0.007289978279150191i
-4.206674832605926        -3.742588367554699       1.9853251555718174+0.007101333527670658i
-4.044401397070695        -3.8273801123825715      1.1357951063569909+0.0044543454710778835i
-4.098010200086289        -3.733496839923104       1.689296979786026+0.00664317253765813i
-7.1261351912601425       -3.8579450782348674      5.692583666824649+0.0079341956125636i
-6.6732637574115055       -4.040346712891838       5.369143366761187+0.008093261031611626i
-6.206672885814892        -4.149512849015887       4.964198925483324+0.008178330874703271i
-5.807609790444184        -4.224052020731709       4.521112601242258+0.008108172579231595i
-5.415310368579045        -4.312344250447348       3.966515404897988+0.007759578444982957i
-4.855522740085168        -4.141894909966788       3.1182472578829015+0.00720801566133476i
-5.175030824583557        -4.068748949044448       3.7532488905204686+0.007997307926392139i
-4.665019262669993        -3.9165382702579383      2.920298512204696+0.007616794674303589i
-4.559959100207761        -3.7335674631059135      2.9386521543924964+0.008517762490387252i
-3.2767715724900457       -4.172295324585691       0.09126336627021776+2.1831937017537128E-4i
-3.8872480222625168       -4.05                    0
-3.75460744771528         -4.05                    0
-3.6156191998333984       -4.05                    0
-3.4765569229167266       -4.05                    0
-3.3374946460000547       -4.05                    0
-3.392387960713262        -4.438924693162017       0.3263337222625209+7.791317907775074E-4i
-3.224429162507218        -4.328964016055262       0.18232132720667768+4.349263167783974E-4i
-3.5199939746735978       -4.72227537296396        0.5755340328230137+0.0013639704449648234i
-3.742224213565717        -5                       0.87778488367835+0.002061151154544491i
-7.089877441928293        -3.2444993866727843      6.106514562183727+0.0078096711129761525i
-7.529466430560748        -2.3669451904103274      7.036809913939341+0.0066686343901562264i
-8                        -2.0588235294117663      7.399453303202683+0.006011037297511241i
-7.068668842527051        -2.6633109993405393      6.638690928670933+0.007419009994718986i
-7.527346123364574        -1.7716608088510573      7.709348340359274+0.005549727562390177i
-8                        -1.4705882352941193      8.091945978041803+0.004688722106724103i
-4.431738274931598        -3.6867117186708804      2.7243225770819115+0.00861217422424445i
-4.53649516846002         -3.6020583735243354      3.123356561290255+0.00954791030305617i
-3.888910435146046        -3.95                    0
-3.9366702478776676       -3.836222723001268       0.7701139432016046+0.003432700095752051i
-4.304536039495917        -3.640689124349146       2.5190341573008745+0.00879115265871569i
-4.177077072754126        -3.623101687127724       2.2589609892209896+0.008726973484423585i
-3.993970224613096        -3.7225028627213503      1.4570260355390168+0.006374249261943805i
-4.058808407559756        -3.617313076987945       2.008450078735864+0.008594232635945375i
-6.639388700947507        -3.498824187203067       5.702498806958139+0.00821577315627278i
-6.308255692514199        -3.740620822528916       5.302948152770085+0.008393010618830738i
-5.895064022363979        -3.7379321619056745      4.945540232982077+0.008682563064492652i
-5.539084733352665        -3.9175370589216434      4.398819018520112+0.008528436863908235i
-4.953185131381667        -3.8283457895477206      3.601119702494398+0.008575144080246231i
-5.234045658019182        -3.7523034915515714      4.135665685048176+0.00896250413592686i
-4.741661835475959        -3.6297300781672046      3.4788109049690945+0.009466685598122597i
-2.917226997732466        -4.270299270074264       0.08629596725537647+2.0525917311486533E-4i
-3.0471450688080637       -4.3177580586765645      0.1292501950206301+3.076712636714686E-4i
-2.8981870199161923       -4.4149381439731785      0.13266385661952987+3.1532317108959876E-4i
-2.7946570264853867       -4.288735558273838       0.07575140417831557+1.8004973807739745E-4i
-3.1341998009088803       -4.1836615394325545      0.07724715185066154+1.8423505717228455E-4i
-2.994234457861651        -4.170161485555677       0.054615270407072924+1.3003180129287818E-4i
-3.198432369083383        -4.05                    0
-2.7171865633388324       -4.417544777435134       0.09859959107513126+2.3421786621377911E-4i
-2.6760936092963457       -4.276969509165555       0.05920651866044465+1.4066880499016683E-4i
-2.55250901520796         -4.343219087005322       0.061228957146529865+1.4541809009887004E-4i
-3.1272437607743426       -4.603073176389616       0.2697140523543986+6.407073670683065E-4i
-2.8263207481807338       -4.580928378660921       0.1589008343459413+3.773240667140644E-4i
-3.348227662100417        -5                       0.4789635912286137+0.0011332181513265197i
-7.528618451352726        -1.1807084702648805      8.440672248295561+0.004003097598127764i
-8                        -0.8823529411764723      8.83554393975594+0.0029911435065869073i
-6.608764186404674        -2.947183566993162       6.182006128764496+0.008197100092386863i
-7.057687126264015        -2.070528581941398       7.289705002721882+0.0065859841592757215i
-6.591689772644503        -2.3639746445051744      6.815665424288997+0.007776142829063596i
-7.058536983226518        -1.4791600854537368      8.01658718749414+0.005224689932806867i
-4.597298700095433        -3.4545400657804786      3.522550515427891+0.010777282201924072i
-4.427129992563021        -3.5243361416974572      3.0606714378682938+0.010227618450366996i
-3.7584272056580588       -3.95                    0
-3.8170105814901754       -3.832649960939622       0.6246013493293519+0.0032303040309152975i
-3.879849986478576        -3.712727203591832       1.2800555551758166+0.006330804706426441i
-4.272189047061366        -3.4940027760681773      2.8255847616362306+0.01059761918172395i
-4.1232353139926765       -3.503216245058444       2.511371222977726+0.010541251100805978i
-3.9441530287302884       -3.6020413293778573      1.8434396912228108+0.00880617289313594i
-4.016268158489865        -3.5187473202441715      2.2677198872958733+0.010372321511514154i
-6.141849297497634        -3.2431504806277838      5.610412244956948+0.008881260602180967i
-5.7727281348468065       -3.3728578253484556      5.172553795047442+0.009329889517211816i
-5.456686356136915        -3.4855733771926496      4.71890038427508+0.009564954827469637i
-5.046241244641107        -3.4613122830513947      4.22204399087197+0.010196048944202908i
-4.771739429991202        -3.3922880874391623      3.9224521954189884+0.010984316791849526i
-4.617401581588039        -3.286140436148868       3.885482682256481+0.012093551978291029i
-2.853848249588415        -4.162996569886446       0.04048889173893821+9.629238628021721E-5i
-2.7266215281046344       -4.165427500844519       0.033377527082307394+7.932815450305623E-5i
-2.588197384522768        -4.178366903282493       0.02939976890098564+6.984195278006732E-5i
-3.059370092166711        -4.05                    0
-2.9203078152500392       -4.05                    0
-3.6193680185721444       -3.95                    0
-3.687969610264721        -3.8263560581000897      0.5719907900643619+0.0034021668774227055i
-3.4801615563193646       -3.95                    0
-3.5514646592142194       -3.825287512690319       0.5280669300361539+0.003582339911140157i
-3.340955094066585        -3.95                    0
-3.41126805731786         -3.825618612802881       0.4970219409338556+0.003812418360874384i
-3.2017486318138046       -3.95                    0
-3.272179831996173        -3.8249720838961156      0.48117247617350484+0.004129903751144188i
-3.0625421695610253       -3.95                    0
-3.1346016922149897       -3.8252165571812444      0.4687976554956627+0.004462347740358329i
-2.4431071078979336       -4.208057839231935       0.028313792732344596+6.724127651093469E-5i
-2.358309154362316        -4.376234092803687       0.04888469676384571+1.160693977546441E-4i
-2.29394741792818         -4.202721036188589       0.02138063130541146+5.076691434731493E-5i
-2.209873841545347        -4.339840923338801       0.03432441463861214+8.1491667237138E-5i
-2.0910225905920736       -4.297144993859561       0.024301681533610116+5.7693630126203194E-5i
-2.0935858421414446       -4.425972840695075       0.03573938583269447+8.484429190245756E-5i
-1.9601590709739565       -4.343453660432961       0.022981514344085057+5.455663981110163E-5i
-2.5331215887265097       -4.627683157060812       0.1035707926669729+2.458701846671588E-4i
-2.2529357469262905       -4.544580405277039       0.05832201964066391+1.38453385645002E-4i
-2.8640176231357355       -5                       0.21811804017731573+5.174457615398316E-4i
-7.529286930892119        -0.5913964069706176      9.209327003523532+0.002105667519300521i
-8                        -0.29411764705882604     9.608425421496673+0.0010288001029875714i
-7.530089759709245        -0.00234831149339886     9.996468272999934+8.379787713988659E-6i
-8                        0.2941176470588207       10.390806143981433-0.00102906734277486i
-7.53115962179015         0.5869482055667269       10.783959181630905-0.002090140962292151i
-8                        0.8823529411764666       11.16367776133594-0.0029914861599819958i
-7.5329195521785834       1.176912715622182        11.553466711284225-0.0039902780555622006i
-8                        1.4705882352941124       11.907256752530186-0.004689197574296519i
-7.5346744783179345       1.76791154219762         12.28475795869055-0.0055376747586787225i
-8                        2.0588235294117583       12.599723566236056-0.006011663574415766i
-7.534125656032507        2.3561483727805848       12.95032787668835-0.006650385410010004i
-8                        2.647058823529404        13.216829610584062-0.006926786567496627i
-7.059899330636081        -0.888991445051388       8.790101550669364+0.003376110409008986i
-6.121299744138974        -2.6695682492632113      6.2376156491245105+0.00906110927145373i
-6.588241088984087        -1.7768145533179316      7.545143017867853+0.006728284561772956i
-6.117553265610895        -2.07738989895146        6.999513674843169+0.008542749702935224i
-6.591053780147692        -1.1866111307696487      8.334900413392562+0.004987605136935468i
-4.410264158713377        -3.3253139114967403      3.4829284145888795+0.012320004831024826i
-3.756547097006234        -3.7016763028351627      1.1766759884648046+0.0066163221419491694i
-3.8307434913986          -3.5809848207072754      1.7573931047649884+0.009381039730845593i
-4.1987319642252725       -3.346720498658019       3.092705707915473+0.01268826940198147i
-4.035332850298772        -3.398482949438849       2.689505907129927+0.012429564038053587i
-3.9202107552509893       -3.4722390246381725      2.2786441456019593+0.011447296928854454i
-5.635809987282549        -3.001762284092789       5.488164661900725+0.010185102519828562i
-5.216915475766233        -3.168276893121327       4.856795216861075+0.010987007884843115i
-4.856093788155469        -3.1297175740478673      4.498118688071988+0.012330144891111259i
-4.547631678208451        -3.0894222392197763      4.194871800977875+0.013940175197168619i
-2.7812455383333674       -4.05                    0
-2.6421832614166956       -4.05                    0
-2.5031209845000237       -4.05                    0
-2.9233357073082455       -3.95                    0
-2.9940166579498952       -3.8266270490519396      0.45662422648492224+0.00479810717388674i
-3.6249775009866427       -3.698345940679345       1.0895582496544565+0.006952607787011283i
-3.4850364686036617       -3.7013904546752414      1.0099451343468697+0.007298690779530897i
-3.3378065599760136       -3.70205172383729        0.9630529374790989+0.007859399430054348i
-3.206698260965921        -3.6969439592688973      0.956850553597603+0.00863952363391717i
-3.070424601003115        -3.702756250870508       0.9185260705846306+0.009153225300240079i
-2.163339265513452        -4.192193361757118       0.01605829406258814+3.812566735623459E-5i
-2.364058707583352        -4.05                    0
-2.22499643066668         -4.05                    0
-2.015102134475188        -4.1859828966749175      0.012028087019218314+2.8555102111946154E-5i
-1.8839716398402662       -4.202889460154049       0.0108688541470652+2.580196485178155E-5i
-1.7787206221484695       -4.362133204347534       0.01803155095744913+4.280423384050079E-5i
-1.6652809864756641       -4.275637639592764       0.011056334645115871+2.624593593034636E-5i
-1.6356808693076768       -4.374952853964704       0.014793442632947785+3.51168988310962E-5i
-1.9539379606695555       -4.6048442205670135      0.038724624581272536+9.192444991648877E-5i
-1.6674554217977324       -4.54132901464863        0.022109289721118506+5.248276919035314E-5i