% Model:              VLR_3_01V03.mph
% Version:            COMSOL 5.5.0.292
% Date:               Jun 28 2020, 18:57
% Dimension:          2
% Nodes:              747
% Expressions:        1
% Description:        Electric potential
% Length unit:        cm
% x                       y                        V2 (V)
-1.0155601945649961       -0.8115648410417413      0
-1.16954918256712         -0.5675867418787912      0
-1.2793217650751605       -0.8537405469642813      0
-1.07543239913659         -1.087760249386642       0
-0.8115558807034268       -1.0155673549773474      0
-1.2659337195218603       -0.2956548964207225      0
-1.4463928272665363       -0.58757896197391        0
-1.3                      0                        0
-1.5614976474519437       -0.10219738258833995     0
-0.8288807839436529       -1.2936028459413302      0
-0.5675764566051122       -1.1695541739943407      0
-0.5366974137221804       -1.4330229725240855      0
-0.29565713318204245      -1.265933197131103       0
-0.2179245605198487       -1.5282975686260225      0
0                         -1.3                     0
-1.265933197131103        0.29565713318204245      0
-1.5549158247413521       0.21349230938989713      0
-1.1695541739943407       0.5675764566051122       0
-1.4470422463767587       0.5235450228923163       0
0.15109629003796485       -1.5819619253574015      0
0.2956548964207225        -1.2659337195218603      0
-1.2906012759293473       0.8120575332571673       0
-1.0155673549773474       0.8115558807034268       0
0.5073866903547474        -1.4650248466013662      0
0.5675867418787912        -1.16954918256712        0
-1.090441015147221        1.065177668146943        0
-0.8115648410417413       1.0155601945649961       0
0.8092333506376929        -1.3042022729925733      0
0.8115648410417413        -1.0155601945649961      0
-0.5675867418787912       1.16954918256712         0
-0.8540001562038448       1.2621746190934615       0
1.0715850583235254        -1.092826170985052       0
1.0155673549773474        -0.8115558807034268      0
-0.2956548964207225       1.2659337195218603       0
-0.5757241442367667       1.437321559959081        0
1.2858526526924465        -0.8338589154248964      0
1.1695541739943407        -0.5675764566051122      0
0                         1.3                      0
-0.09875713711133992      1.5356508565431692       0
1.439889208005134         -0.541492045111583       0
1.265933197131103         -0.29565713318204245     0
0.29565713318204245       1.265933197131103        0
0.22237919004473639       1.5233605753886614       0
0.5675764566051122        1.1695541739943407       0
0.5388742042948922        1.437439208505668        0
0.8261014995231165        1.285168428547747        0
0.8115558807034268        1.0155673549773474       0
1.0749461241061056        1.0865399290191238       0
1.0155601945649961        0.8115648410417413       0
1.16954918256712          0.5675867418787912       0
1.289598362275306         0.8476566463132906       0
1.2659337195218603        0.2956548964207225       0
1.4487330631429816        0.5761610259385187       0
1.3                       0                        0
1.5444724480603251        0.09970481684493046      0
1.5321175117790735        -0.2202406572492679      0
-0.7684943054298782       -0.7772561265058915      0
-0.9119039607003707       -0.5993712871683239      0
-1.0188304120127507       -0.37056473540487156     0
-0.5822684978399087       -0.9217912121894519      0
-1.059019419946632        -0.12785741552021537     0
-1.0516967775594537       0.12075377018181807      0
-0.37017816769546874      -1.0190089474565855      0
-0.13562289835049005      -1.0667937741083493      0
0.08824527794783171       -1.0565665467356657      0
-0.9999467277112503       0.3600649264087028       0
-0.8960301917255047       0.5754049319681268       0
0.33750211632411076       -1.00895239301316        0
-0.7465765041445183       0.757646499341737        0
-0.4494507078774656       -0.21907546916175957     0
-0.4865695894415316       -0.11510879475826058     0
-0.552016237282022        -0.2187063900812425      0
0.5605425822253833        -0.9089590372419074      0
-0.5610283784769219       0.8981941944429235       0
0.7490717855570497        -0.7582692516421408      0
-0.5726274204696256       -0.041011666437429324    0
-0.49999999999999994      0                        0
-0.5839292617997752       0.05871316142664487      0
-0.48656867927593234      0.11511264199763091      0
-0.3904218372935331       -0.3123632324143511      0
-0.4893691688840334       -0.32220180682679767     0
-0.40356099993301886      -0.41578847341461284     0
-0.31236226997311073      -0.390422607308088       0
-0.34850474068347753      0.9980505789550481       0
0.9024345373809498        -0.5820917657635543      0
-0.44945123089115613      0.21907439615442204      0
-0.5688281305853365       0.18194013512021115      0
-0.390422607308088        0.31236226997311073      0
-0.5159094450650881       0.3023268980638679       0
-0.30830730145682816      -0.4925095370423483      0
-0.21907439615442204      -0.44945123089115613     0
-0.1960249264860418       -0.5542589443015338      0
-0.11511264199763091      -0.48656867927593234     0
-0.07184328315921873      -0.5878629485956172      0
0                         -0.49999999999999994     0
0.11510879475826058       -0.4865695894415316      0
0.07126734783652584       -0.6062103598287303      0
0.21907546916175957       -0.4494507078774656      0
0.21164776562959597       -0.5617397871361183      0
-0.11009065227145737      1.0230748879835474       0
1.0008568931121682        -0.3756776702558632      0
-0.3123632324143511       0.3904218372935331       0
-0.43732165259872047      0.4086722534920857       0
-0.21907546916175957      0.4494507078774656       0
-0.3396170610826815       0.4911296554511314       0
0.3123632324143511        -0.3904218372935331      0
0.32863939993053065       -0.4933717826553166      0
0.12677475064688096       1.0374460382718507       0
1.0388616120610585        -0.1429864681505301      0
-0.11510879475826058      0.4865695894415316       0
-0.23064287023771232      0.5523275448784791       0
0.390422607308088         -0.31236226997311073     0
0.4238506141925855        -0.408974931079842       0
0                         0.49999999999999994      0
-0.048365532791470545     0.5937721067752864       0
0.3611351332412093        0.9935694671546227       0
0.49821363554790543       -0.3082409010906627      0
0.44945123089115613       -0.21907439615442204     0
0.5758660888907934        0.8929485691020903       0
0.7594597676292238        0.7450222515639628       0
0.9032146244438066        0.5585345049222832       0
0.9990618012347913        0.3422584107577667       0
1.0329072740658858        0.09538669444473796      0
0.06525272651145542       0.5864090038587292       0
0.11511264199763091       0.48656867927593234      0
0.48656867927593234       -0.11511264199763091     0
0.5598045306630084        -0.19695407237528348     0
0.21907439615442204       0.44945123089115613      0
0.18502611608123212       0.5629262924525479       0
0.5817846796554502        -0.07143041772699489     0
0.49999999999999994       0                        0
0.31236226997311073       0.390422607308088        0
0.3030986790746542        0.5128671087326686       0
0.5895259739469302        0.04339783730330174      0
0.4865695894415316        0.11510879475826058      0
0.3904218372935331        0.3123632324143511       0
0.40659755383497115       0.43578976265117336      0
0.4494507078774656        0.21907546916175957      0
0.4916693103301281        0.33906577559341505      0
0.5552347643514761        0.22873780790211312      0
-6.692681456466964        -3.7318125818592085      0
-7.999999999999999        -5                       0
-6.049221317502476        -5                       0
-7.999999999999999        -2.866186000034344       0
-4.494762312423499        -5                       0
-5.254893975691851        -3.5700400984866354      0
-6.341713256369817        -2.1042223477109316      0
-7.999999999999999        -0.8992385133983061      0
-3.823641037942012        -3.9640422448783323      0
-3.169270010034951        -5                       0
-4.046230493160853        -2.870818029983243       0
-4.907332589776289        -2.311515986528065       0
-5.209612315409977        -1.273802145578948       0
-6.327472457243642        -0.07696110809101527     0
-7.999999999999999        1.0311486875842422       0
-5.001127922654618        -0.17676641636014695     0
-2.545196385401128        -4.107742651593897       0
-1.978314514974764        -5                       0
-2.9703753371028516       -3.105776827668519       0
-3.246512485251074        -2.102117942515146       0
-4.151598481364778        -1.7692709254158852      0
-4.162394105892142        -0.8366298803837697      0
-2.2460620332967          -2.301103198300315       0
-4.076938014126132        0.1994804539434885       0
-6.858908152862762        3.7068091763093216       0
-7.999999999999999        5                        0
-7.999999999999999        2.978149694898267        0
-6.198438240453398        5                        0
-6.487323048598275        1.9976631438848553       0
-5.229222720601193        1.1040805983095097       0
-1.4336473960539713       -4.1344712817623535      0
-0.8888290779390071       -5                       0
-1.8980264506900306       -3.3092406257970746      0
-2.6250369904851576       -1.4708200897342782      0
-3.337508898698332        -1.2207415675061384      0
-3.3429209245699214       -0.5006429225349058      0
-3.143280489089347        0.1672353737313301       0
-1.9838535874837158       -1.5992154309535858      0
-2.189351552828179        -1.1672867875280108      0
-1.5765473077644425       -1.971428128308328       0
-1.4257036163234607       -2.5722847761004983      0
-1.1427109897796506       -2.1042629542823215      0
-3.9746809913278183       1.1010121332934915       0
-4.38824582241814         1.7250523595336409       0
-3.3503408648992212       0.7708151801315952       0
-5.608779475262145        3.558233042763486        0
-4.761981201536465        5                        0
-4.893332286543442        2.484673654660714        0
-3.8323606396326593       2.1119364915248364       0
0.1911002900828147        -5                       0
-0.3222009855882872       -4.079501067466693       0
-0.8493017057910249       -3.1890601667359775      0
-1.7796461083053223       -1.1870803929470621      0
-2.004038500166886        -0.8384506223911283      0
-2.5541825776998173       -0.7408674016139997      0
-2.773790967128935        -0.15342163974938647     0
-2.765772066652086        0.2026668528016443       0
-2.0739256299983215       -0.4959955020577071      0
-2.8421499859484314       0.5262951282518744       0
-2.5599441112375496       0.36644344717702637      0
-2.5267019938847786       0.11310618438995926      0
-1.4970868324717919       -1.5045032735585921      0
-1.392426444781465        -1.149012935878576       0
-1.1757147885884183       -1.755997664743657       0
-0.8338930294844676       -2.4123218409079152      0
-0.8095696591313588       -1.9530042419359608      0
-3.225815805311986        1.4707767126587075       0
-2.782144095894872        1.0215301680130857       0
-4.339816917842713        3.733964673507527        0
-3.5313471662330875       5                        0
-3.733681897977569        2.9872744913186566       0
-3.0040891468247124       2.2397483667185774       0
6.675335348459767         3.7136861344249277       0
7.999999999999999         5                        0
6.049221317502476         5                        0
7.999999999999999         2.866186000034344        0
6.198438240453398         -5                       0
7.999999999999999         -5                       0
6.5972842516819545        -3.5139465497700577      0
7.999999999999999         -2.978149694898267       0
1.2710760184761858        -5                       0
0.8319016965695776        -3.991554423652931       0
0.2026253828993298        -3.166576098348048       0
-0.2563067458578337       -2.580576118636613       0
-1.611497871339659        -0.864034512168101       0
-1.7671615824425864       -0.5683436128536485      0
-2.3098877508776603       -0.16202792527034698     0
-1.8785654160616998       -0.25389910955037426     0
-2.4409733796812647       0.6782773392457727       0
-2.224123130021187        0.31187173119588113      0
-1.1350928414411434       -1.4039692896278892      0
-0.827300340077005        -1.603692810497284       0
-0.41035913518593276      -2.1082990316339174      0
0.01313106387609796       -2.1541409868926986      0
-0.48397703502844736      -1.7383686144876718      0
-2.4634601706968633       1.6267399588778704       0
-2.2188423999496516       1.105569010427185        0
-2.31040841163422         2.2210654694244436       0
-3.0615307276548878       3.96823248587352         0
-2.36949574117664         5                        0
-2.458807955694978        3.0206970765069485       0
4.494762312423499         5                        0
5.153755156191197         3.546847811476534        0
1.9180463682993576        -4.132193689220534       0
2.36949574117664          -5                       0
4.761981201536465         -5                       0
5.2917742153363365        -3.820735444766664       0
4.0651745673055           -4.044036819003198       0
3.5313471662330875        -5                       0
2.964508676165817         -4.106141406677919       0
6.281412756571389         2.1037129087842996       0
7.999999999999999         0.8992385133983061       0
6.571516809788614         -1.8037887263170738      0
7.999999999999999         -1.0311486875842422      0
5.521976244513384         -2.481005432638341       0
6.1861697472827615        0.20556949046229445      0
1.5762454554808272        -3.398543110597527       0
0.9535163926146096        -3.1815518594526915      0
0.7665540083631289        -2.680160554348371       0
0.29421501998513855       -2.463628498143056       0
-1.5910481709370932       -0.368675453401212       0
-1.9304603695334936       0.06417935262331914      0
-2.0186417830308483       0.7379555544310399       0
-1.7931474509014902       0.4384837435994092       0
0.32319088109513605       -2.0588333679204514      0
-0.12673214912737094      -1.8216865285018229      0
0.16090242388659384       -1.883802817244311       0
-1.983055298910757        1.9175047045658464       0
-1.7771478735208595       1.1187261815478138       0
-1.9113137070147663       1.5113848794123872       0
-1.7274820206766894       2.462195189747175        0
-1.9360346870043337       4.067458673907984        0
-1.2710760184761858       5                        0
-1.509905455341904        3.304331676505097        0
3.7573378598943776        3.952317813487528        0
3.169270010034951         5                        0
3.967749592884376         2.8159014000341664       0
4.844987193218633         2.232062087978724        0
2.4950506219270996        -3.2969231943948296      0
4.4140060121760305        -2.9900496477797933      0
3.380668842652543         -3.1712891227192666      0
4.457173958456391         -2.018641795755455       0
5.097865326438108         1.219643754670422        0
5.111666294292625         -1.0334060194900396      0
4.872385711391567         0.1747433095665639       0
2.0014855719383067        -2.6544943597345787      0
1.3521333730087657        -2.675148782754836       0
1.0807097361164884        -2.29240464670895        0
0.6716246173949522        -2.124088824880485       0
-1.620114761390029        0.7903774724186309       0
0.44382603355114125       -1.8023912775491802      0
-1.4015147391619571       1.1013461427665687       0
-1.5440420710165759       1.868430373333324        0
-1.4894252627084388       1.4481850559770426       0
-1.1834577608943955       2.1867655210627857       0
-1.102815903308944        2.716743276375           0
-0.7717441743967204       3.971082490239073        0
-0.1911002900828147       5                        0
-0.8401816620341354       3.173595738167002        0
2.517075444052769         4.0855904457584          0
1.978314514974764         5                        0
0.3170657686358785        4.0636192034116005       0
0.8888290779390071        5                        0
1.3583667324887403        4.081951182801991        0
2.882394507580745         3.0648268447341773       0
3.103663130721775         2.100346406643646        0
4.069495172195706         1.716593059493649        0
2.7590232052574764        -2.315321897290338       0
3.6574826032096976        -2.262050560341136       0
3.9293929972031445        -1.3037598370116006      0
4.06547625948103          0.7350100826132913       0
3.897158877921167         -0.24756047843408602     0
2.1515041663860863        -2.076398265486555       0
1.5939882527114493        -2.106336388638261       0
1.1198605231145258        -1.8637825423661027      0
0.776941749072626         -1.6661691919910953      0
-1.1430660347369137       1.364683223388962        0
-1.1715816617672454       1.7339469900913587       0
-0.8188441547385915       1.9558313353862722       0
-0.7359807538583272       2.3834459614435843       0
-0.6199436862885654       2.7902079449243415       0
-0.16989650531681258      3.187890065069205        0
1.8156961931487396        3.1666866151209705       0
0.7879397711838713        3.140791482359336        0
2.132844824782435         2.268118387360355        0
2.5856667356413396        1.5210211275446184       0
3.294963736258647         1.2119650494032717       0
2.438050347388042         -1.6920883692414197      0
3.026609912922548         -1.4771262981186728      0
3.331657642580192         -0.822357165372277       0
3.1576364217494           0.33931313246125083      0
3.095064635541273         -0.3248599999914218      0
1.9660387459765016        -1.6260462803586055      0
1.486185652439471         -1.5560798430582012      0
1.1097121062137458        -1.4376315208134185      0
-0.8507695320237898       1.579946058916638        0
-0.5380818538757908       1.7467877853174854       0
-0.4332492852523519       2.1041780690857705       0
-0.2632659262338464       2.554076028091056        0
0.19166402157257276       2.6232300703355342       0
1.319285391236556         2.427810703787724        0
0.691830950023583         2.4522656829219027       0
1.5989897330704728        1.906177021704502        0
1.2433147537602807        1.999188880960666        0
1.9675113714271102        1.561127039925597        0
2.1793005783728794        1.1693438223328783       0
2.558912222982937         0.8312659910141126       0
2.360600983989792         -1.1858276251699809      0
2.527783204029797         0.30030735327752917      0
2.710061789312828         -0.7584792133056037      0
2.6702054175448513        -0.12551162544932803     0
1.7957661374432645        -1.1855443628953655      0
1.396527526016089         -1.1561651144909249      0
-0.350405287967264        1.5700919333573278       0
-0.22606610061965937      1.8238068015206892       0
-0.04293965838151722      2.182307708220704        0
0.37773959873425844       2.15049230502935         0
0.8509692233969737        2.040588827055397        0
1.193544642129028         1.737466076797702        0
1.5134677119760813        1.4818088008250145       0
1.782925912681993         1.170136537385771        0
2.0172779187931864        0.8248434160273213       0
2.1497569660353126        0.4520680360519186       0
2.0853203199746653        -0.7965941397204233      0
2.2091929747905565        0.06586024918440464      0
2.2290384304099597        -0.34201500796479967     0
1.6300050757417435        -0.8311619222730557      0
0.11947267602457626       1.8304630614016923       0
0.49093388904187085       1.7654167462952544       0
0.8361684417557879        1.6101565003907554       0
1.140745785960423         1.3897243999697613       0
1.4002462962724187        1.1372066642382253       0
1.617469732890318         0.8498221752515187       0
1.766036844176024         0.5429287616059854       0
1.8344984134952589        0.2284699576606055       0
1.7953886821374732        -0.47316055505979543     0
1.8559615469142632        -0.1074595580396435      0
1.5838076547642927        0.35332098232889436      0
-0.8659362964560395       -0.21691196880631586     0
-0.7177397132707498       -0.5906326847426424      0
-0.57198296232507         -0.7246282346295335      0
-0.7944145318125668       -0.40098307788348253     0
-0.7308042726370404       -0.24964433206289988     0
-0.6335951321062174       -0.4643658750307026      0
-0.7303548105220488       -0.1373592157193003      0
-0.6502064694193417       -0.2026069315575483      0
-0.40384014416253433      -0.8247551065001347      0
-0.8460983199967729       -0.008415662021194934    0
-0.6745069273539844       -0.021445975138848453    0
-0.8398453431013263       0.20464849790941442      0
-0.5466757286511102       -0.5694350545592691      0
-0.4229785054658802       -0.6656563463857402      0
-0.6239490367683214       -0.328205840673727       0
-0.517237445237028        -0.43893247127341556     0
-0.6145765772691135       -0.12513042472899433     0
-0.2361198402386079       -0.8652414713296406      0
-0.3066332141111812       -0.7339299001775915      0
-0.03226649131024338      -0.845614459198947       0
0.17027049969911115       -0.856883275290697       0
-0.7013938976943627       0.11919578744488835      0
-0.7766206827557733       0.39634876860570273      0
-0.665464891128009        0.269737550682362        0
-0.6682467335675234       0.5592592816518905       0
-0.4168010404649739       -0.5324947947848152      0
-0.3020462620459772       -0.6126468860335051      0
-0.16818131864290634      -0.701349690638937       0
-0.024127804161376103     -0.6936803652758128      0
0.07917547436631203       -0.7351149412825206      0
0.36351270843932726       -0.7979873378375648      0
0.20341794813451144       -0.6930808643126742      0
-0.5905436398269484       0.4132151845758667       0
-0.5324287436167697       0.6900489802113273       0
-0.48603069454064096      0.5294457722233125       0
0.5408428461711441        -0.6699802692310042      0
0.3473243374510374        -0.6285437053925467      0
-0.3699033811455773       0.7805800826851483       0
0.6998395460748466        -0.5648139528901513      0
0.5781103458838717        -0.513028230566897       0
-0.36527742588827694      0.6193313909501114       0
-0.24194305870582486      0.6770493564257772       0
0.45757498073385444       -0.5210997271523939      0
-0.18676439390739494      0.8509714065296893       0
-0.1038380273755694       0.7092208597142811       0
0.6490359022250078        -0.4418603890824956      0
0.5414283775414419        -0.413846522179863       0
0.7821476706437236        -0.4149211451551631      0
-0.14513569434993975      0.6027283727726249       0
0.008636754597391967      0.6777050159847723       0
0.014063315513132441      0.8206228926059177       0
0.6478364679610826        -0.30594984028073663     0
0.8297957111027185        -0.2261439402950599      0
0.1311063791839481        0.6974819286638365       0
0.20280214422204063       0.8243517059951858       0
0.6929543919777531        -0.14526257156216119     0
0.8198509782887846        -0.019143194183952682    0
0.2770287098945127        0.6621916349044417       0
0.3982631739551373        0.7713593273167573       0
0.6707551443075299        -0.017716650203518806    0
0.5605287513317925        0.6671464603057646       0
0.6939158598834947        0.5297957090781608       0
0.7863774989219162        0.36142165954423927      0
0.8366018647299035        0.17526205848178947      0
0.7023959581050737        0.09257994995371917      0
0.4122182161504757        0.5879481264384387       0
0.5309952588303131        0.4862183037437986       0
0.6232398608526418        0.36095242680553585      0
0.6838386461438933        0.22547222710278966      0
0.6036628032166818        0.1389898360856145       0
-3.9440497740762472       -50                      0
-3.9999999999999996       -49.95                   0
-3.9999999999999996       -50.05                   0
-3.888951808229102        -49.949999999999996      0
-3.8872472880758893       -50.05                   0
-3.7585519711298074       -49.949999999999996      0
-3.7546081803647673       -50.05                   0
-3.6195081011525874       -49.95                   0
-3.615630488891391        -50.05                   0
-3.480296251108312        -49.95                   0
-3.4765677777801414       -50.05                   0
-3.3410844010640366       -49.95                   0
-3.3375050666688924       -50.05                   0
-3.201872551019761        -49.95                   0
-3.198442355557644        -50.05                   0
-3.0626607009754854       -49.95                   0
-3.0593796444463943       -50.04999999999998       0
-2.92344885093121         -49.95                   0
-2.9203169333351453       -50.05                   0
-2.7842370008869346       -49.95                   0
-2.7812542222238963       -50.05                   0
-2.645025150842659        -49.95                   0
-2.6421915111126473       -50.05                   0
-2.505813300798384        -49.95                   0
-2.5031288000013983       -50.05                   0
-2.3666014507541084       -49.95                   0
-2.3640660888901492       -50.05                   0
-2.227389600709833        -49.95                   0
-2.2250033777789002       -50.05                   0
-2.0881777506655577       -49.95                   0
-2.085940666667651        -50.05                   0
-1.9489659006212825       -49.95                   0
-1.9468779555564024       -50.05                   0
-1.8097540505770071       -49.95                   0
-1.8078152444451534       -50.05                   0
-1.6705422005327315       -49.95                   0
-1.6687525333339046       -50.05                   0
-1.5313303504884563       -49.95                   0
-1.5296898222226554       -50.04999999999998       0
-1.3921185004441812       -49.95                   0
-1.3906271111114064       -50.05                   0
-1.2529066503999056       -49.95                   0
-1.2515644000001576       -50.05                   0
-1.1136948003556302       -49.95                   0
-1.1125016888889083       -50.05                   0
-0.9744829503113548       -49.95                   0
-0.9734389777776593       -50.05                   0
-0.8352711002670795       -49.95                   0
-0.8343762666664103       -50.05                   0
-0.696059250222804        -49.95                   0
-0.6953135555551613       -50.05                   0
-0.5568474001785286       -49.95                   0
-0.5562508444439123       -50.05                   0
-0.41763555013425324      -49.95                   0
-0.41718813333266325      -50.05                   0
-0.27842370008997785      -49.95                   0
-0.27812542222141423      -50.05                   0
-0.13921185004570247      -49.95                   0
-0.13906271111016522      -50.05                   0
-1.4270806758531762E-12   -49.95                   0
1.0835776720341528E-12    -50.04999999999998       0
0.13906271111233393       -50.05                   0
0.13921185004284786       -49.95                   0
0.2781254222235834        -50.04999999999998       0
0.27842370008712325       -49.95                   0
0.41718813333483373       -50.05                   0
0.41763555013139864       -49.95                   0
0.5562508444460832        -50.05                   0
0.556847400175674         -49.95                   0
0.6953135555573335        -50.05                   0
0.6960592502199494        -49.95                   0
0.8343762666685831        -50.04999999999998       0
0.8352711002642248        -49.95                   0
0.9734389777798333        -50.05                   0
0.9744829503085003        -49.95                   0
1.1125016888910828        -50.04999999999998       0
1.1136948003527756        -49.95                   0
1.2515644000023332        -50.05                   0
1.252906650397051         -49.95                   0
1.3906271111135826        -50.05                   0
1.3921185004413263        -49.95                   0
1.529689822224833         -50.05                   0
1.531330350485602         -49.95                   0
1.6687525333360824        -50.05                   0
1.6705422005298773        -49.95                   0
1.807815244447333         -50.05                   0
1.8097540505741523        -49.95                   0
1.9468779555585822        -50.04999999999998       0
1.948965900618428         -49.95                   0
2.0859406666698326        -50.05                   0
2.088177750662703         -49.95                   0
2.225003377781082         -50.05                   0
2.2273896007069784        -49.95                   0
2.3640660888923324        -50.05                   0
2.366601450751254         -49.95                   0
2.503128800003582         -50.04999999999998       0
2.505813300795529         -49.95                   0
2.642191511114832         -50.05                   0
2.6450251508398046        -49.95                   0
2.7812542222260817        -50.04999999999998       0
2.78423700088408          -49.95                   0