% Model:              VLR_3_01V03.mph
% Version:            COMSOL 5.5.0.292
% Date:               Jun 28 2020, 18:59
% Dimension:          2
% Nodes:              2170
% Expressions:        1
% Description:        Electric potential
% Length unit:        cm
% x                       y                        V2 (V)
-1.5524059145485165       -0.7238721497441369      9.55484002220959-3.076226885331188E-5i
-1.2990322911339665       -0.750010070993209       10.000032189739004-3.3973777644997524E-5i
-1.409536313227687        -0.5130374076931423      10.000032189739-3.398308570155664E-5i
-1.4036080168831755       -0.9819155577643657      9.385718709121504-3.059501621867181E-5i
-1.149063052439335        -0.9641857194123948      10.00003218973901-3.39653218036521E-5i
-1.6548741720547302       -0.44393074704101804     9.729993981463094-3.0877723443086825E-5i
-1.4772109886979958       -0.2604759007468612      10.000032189738997-3.3992966726968045E-5i
-1.7069790507670872       -0.15013188519544104     9.90925118445437-3.094363424250262E-5i
-1.5                      0                        10.000032189738999-3.4003138195167704E-5i
-1.7067284642166485       0.1495981453223268       10.090382562340137-3.095632721035921E-5i
-1.4772106593504082       0.26047776853607507      10.000032189739013-3.4013309745275186E-5i
-1.2128053684279931       -1.210475665252934       9.227305886502608-3.039305700216872E-5i
-0.9642335055494975       -1.1490229531109146      10.00003218973901-3.3957983777627375E-5i
-0.984871002134531        -1.4027654964664409      9.08755668358229-3.0184908667169497E-5i
-0.7500124149660692       -1.2990309378135554      10.00003218973901-3.3951997403340665E-5i
-0.7264768500220085       -1.5532027317483041      8.972437786102807-2.998928663689816E-5i
-0.5130398575996976       -1.4095354215180553      10.000032189739008-3.3947568768610096E-5i
-1.652846685068397        0.4443358403186744       10.268401709787428-3.092845290432545E-5i
-1.4095354215180553       0.5130398575996976       10.000032189739029-3.4023190821101355E-5i
-1.5496650950598807       0.7233493210872718       10.44029169101596-3.0842250526433766E-5i
-1.2990309378135554       0.7500124149660692       10.000032189739024-3.403249892011816E-5i
-0.4456029004686389       -1.6554908591752733      8.894909072656281-2.985417517908297E-5i
-0.26047776853607507      -1.4772106593504082      10.00003218973901-3.394484948431639E-5i
-1.402285870302684        0.9817357673651785       10.611452190656232-3.066926434163725E-5i
-1.1490229531109146       0.9642335055494975       10.00003218973901-3.4040956632592694E-5i
-0.1512456873626022       -1.709036903422271       8.847543580361718-2.9754265061558053E-5i
0                         -1.5                     10.000032189738985-3.39439279458557E-5i
-1.209900453470178        1.2099233421588134       10.765249695023046-3.0500509465152492E-5i
-0.9641857194123948       1.149063052439335        10.000032189739008-3.404829444412048E-5i
0.14938115091952603       -1.7075929720758634      8.855467008187075-2.9783178093412446E-5i
0.2604759007468612        -1.4772109886979958      10.000032189738965-3.3944849585437414E-5i
-0.9820219505364608       1.4031714896718206       10.908343238662537-3.028608386152404E-5i
-0.750010070993209        1.2990322911339665       10.000032189739-3.405427937364579E-5i
0.44490721232479546       -1.6548060110307268      8.898906376784891-2.98690745615395E-5i
0.5130374076931423        -1.409536313227687       10.00003218973893-3.394756900210002E-5i
-0.7230202927522164       1.5508715451924093       11.0121788861178-3.0140028287516646E-5i
-0.5130374076931423       1.409536313227687        10.000032189738983-3.40587081025117E-5i
0.7230009425561288        -1.5483435969433603      8.998606156322529-3.0090429834567375E-5i
0.750010070993209         -1.2990322911339665      10.000032189738906-3.395199776180878E-5i
-0.44350033854644294      1.6540162297210381       11.09590055097915-2.9984682488341035E-5i
-0.2604759007468612       1.4772109886979958       10.000032189738967-3.406142750219061E-5i
0.9797890684979246        -1.4005615762650554      9.105352107844157-3.026110111611575E-5i
0.9641857194123948        -1.149063052439335       10.0000321897389-3.3957982728866884E-5i
-0.15006843148768673      1.708317831692693        11.14846616525601-2.9867624072007132E-5i
0                         1.5                      10.000032189738933-3.4062349158287495E-5i
1.2086818805238357        -1.209423413405714       9.238724335251561-3.0448923096545173E-5i
1.1490229531109146        -0.9642335055494975      10.000032189738887-3.3965320596043085E-5i
0.1502129325193976        1.7084787659481564       11.149342880471337-2.9864423166323943E-5i
0.2604733176110247        1.4772114441787627       10.000032189738901-3.406142764428678E-5i
1.401049533233359         -0.9821557226000792      9.390135059692613-3.062302384965382E-5i
1.2990309378135554        -0.7500124149660692      10.000032189738874-3.397377832619354E-5i
0.44553474415256367       1.6556002568533537       11.1055931731114-2.9948174211005873E-5i
0.5130308300018143        1.4095387073321717       10.000032189738901-3.405870841444602E-5i
1.5542025803939876        -0.7245880689361576      9.551133139189949-3.073512708356164E-5i
1.4095354215180553        -0.5130398575996976      10.000032189738867-3.39830864598694E-5i
0.7246777166311112        1.5505870701088695       11.013677539767281-3.0133138663466893E-5i
0.7500003944253057        1.2990378779550218       10.000032189738894-3.405427994071772E-5i
1.6530999733090226        -0.4429791694650938      9.732608942757311-3.090452571512937E-5i
1.4772106593504082        -0.26047776853607507     10.000032189738834-3.3992967532949784E-5i
0.982622498612517         1.4014767171672964       10.90354527646174-3.030429749467602E-5i
0.9641816539097096        1.149066463814838        10.00003218973888-3.404829506428269E-5i
1.2124175392424283        1.209081225467874        10.768116201587889-3.048340479571692E-5i
1.149066861522912         0.964181179939686        10.000032189738857-3.404095515814461E-5i
1.7062907179271811        -0.1502426703760007      9.909439898104582-3.0952648712079555E-5i
1.5                       0                        10.00003218973883-3.40031390774438E-5i
1.7042244502685173        0.1495444210497112       10.08950331659207-3.098970317519871E-5i
1.4772116647960043        0.2604720664305813       10.00003218973881-3.401331037070685E-5i
1.4022216739196285        0.9789000293039779       10.60567159248266-3.069547694766882E-5i
1.2990382497578632        0.7499997504439765       10.000032189738821-3.4032499134583344E-5i
1.5486976698882025        0.7210191644266362       10.435672872389716-3.0869355936902875E-5i
1.409539002854417         0.5130300180614935       10.000032189738807-3.4023191233025505E-5i
1.6515122033572722        0.44256218673752645      10.265530331133384-3.095268598157311E-5i
-0.9965377364775745       -0.5119901962187896      10.00003218973916-3.39802117738678E-5i
-1.2008663059005218       -0.49791577134374276     10.000032189739002-3.3980888085382384E-5i
-1.0807815042536755       -0.722434315397021       10.000032189739013-3.397079762995641E-5i
-1.2748903559257052       -0.2542726496649377      10.000032189739004-3.3991791652490815E-5i
-1.0319755508591002       -0.2986993336941238      10.000032189739196-3.3989771007565175E-5i
-1.127842537973944        -0.10191755939636227     10.000032189739152-3.3998581988167154E-5i
-1.3                      0                        10.000032189738993-3.400313819735205E-5i
-0.9192376674108731       -0.9192399636727167      10.000032189739008-3.3961903918173184E-5i
-0.8319228040530704       -0.666498582512621       10.0000321897392-3.39732425793445E-5i
-0.7189976595822637       -0.8618054782722095      10.000032189739164-3.3964432940399475E-5i
-0.7224316832899383       -1.080783263646725       10.000032189739006-3.395456090177551E-5i
-1.0664996676627645       0.10472812591542703      10.0000321897392-3.40078229744049E-5i
-1.2748902800748012       0.25427302997131845      10.000032189739018-3.4014484772700684E-5i
-1.062896677181684        0.3387977857500095       10.00003218973917-3.401829601604252E-5i
-1.2008674665427264       0.49791297211385643      10.000032189739027-3.402538823304033E-5i
-0.49791297211385643      -1.2008674665427264      10.000032189739-3.394907328044626E-5i
-0.510399172809512        -0.9339474656970057      10.0000321897392-3.396113596376904E-5i
-0.3309785191594261       -1.0518819784006919      10.000032189739171-3.3955783587860345E-5i
-0.25427302997131845      -1.2748902800748012      10.000032189739008-3.394567673072826E-5i
0                         -1.3                     10.000032189738986-3.394451941350441E-5i
-0.10538155234965872      -1.0659210831003534      10.000032189739185-3.3955128562003724E-5i
-1.080783263646725        0.7224316832899383       10.00003218973902-3.4035478755433994E-5i
-0.9395818995731745       0.5163281894979804       10.0000321897392-3.4026271125053095E-5i
-0.8531621289884193       0.7147457534798374       10.00003218973917-3.403519630981901E-5i
-0.9192399636727167       0.9192376674108731       10.000032189739011-3.404437256117132E-5i
0.09303996630995835       -1.109229376845453       10.000032189739132-3.395317049934629E-5i
0.2542726496649377        -1.2748903559257052      10.00003218973895-3.394567687942804E-5i
-0.722434315397021        1.0807815042536755       10.000032189739002-3.405171570214396E-5i
-0.6753386092608932       0.8357571304674056       10.000032189739194-3.4040681676599905E-5i
0.49791577134374276       -1.2008663059005218      10.000032189738915-3.3949073657105835E-5i
0.30441895262960145       -1.0265167154650547      10.000032189739152-3.3956925873954916E-5i
-0.5126260877670702       0.9848384949288346       10.00003218973916-3.404743567000419E-5i
-0.49791577134374276      1.2008663059005218       10.000032189738986-3.40572034659029E-5i
0.5084580515760682        -0.9864169887835698      10.000032189739098-3.395876938421507E-5i
0.722434315397021         -1.0807815042536755      10.000032189738908-3.395456146168921E-5i
-0.2542726496649377       1.2748903559257052       10.000032189738967-3.406060021997923E-5i
-0.3053391794608046       1.0335196511967168       10.000032189739168-3.4049667391944666E-5i
0.9192399636727167        -0.9192376674108731      10.000032189738892-3.3961904643590516E-5i
0.6368844629499694        -0.8395735824827906      10.000032189739136-3.396541502968117E-5i
-0.10393032726764048      1.1209472354201107       10.000032189739112-3.405363590319159E-5i
0                         1.3                      10.000032189738926-3.406175768420865E-5i
1.080783263646725         -0.7224316832899383      10.000032189738876-3.3970798485732315E-5i
0.8095056677279252        -0.6838518544522508      10.000032189739118-3.3972458423375547E-5i
0.2542774865505297        1.274889391215389        10.000032189738898-3.4060600308896074E-5i
0.10931980786731789       1.064593217881322        10.00003218973913-3.405108834153424E-5i
1.2008674665427264        -0.49791297211385643     10.000032189738864-3.398088903441597E-5i
0.9467820609760702        -0.5052548130729154      10.000032189739095-3.398050407218319E-5i
0.3316141418675122        1.0762888869531588       10.000032189739072-3.4051595936118706E-5i
0.4979217638008312        1.2008638212276481       10.00003218973889-3.405720360827793E-5i
0.7224441620852138        1.0807749222983452       10.000032189738894-3.405171579248816E-5i
0.506476331786558         0.9410708427980866       10.000032189739102-3.404546309086937E-5i
1.0596055206129462        -0.3394856756542466      10.000032189739041-3.398794992512476E-5i
1.2748902800748012        -0.25427302997131845     10.000032189738837-3.39917925038376E-5i
0.7153895190447785        0.8566739894903068       10.000032189739043-3.404161406804781E-5i
0.9192416125180489        0.9192360185584644       10.00003218973887-3.4044373016034756E-5i
1.0807768060422045        0.7224413440004743       10.000032189738832-3.4035479845396695E-5i
0.8313272910502476        0.6678774959315521       10.000032189739061-3.403309665159406E-5i
0.9847230645340913        0.5050330166939598       10.000032189739017-3.402575607579319E-5i
1.2008648344332253        0.4979193201932035       10.000032189738807-3.402538927933699E-5i
1.3                       0                        10.000032189738814-3.400313906851981E-5i
1.0610299183128573        -0.12096244923492275     10.000032189739052-3.3997727748543936E-5i
1.1000394500664892        0.08964047751280829      10.000032189739006-3.400714749667106E-5i
1.2748898793617054        0.2542750390838555       10.000032189738807-3.401448569673145E-5i
1.0224128903168839        0.29599006887008583      10.000032189739043-3.4016386160880156E-5i
-7.616736377532125        -4.607826820330119       5.491060637695701-6.6157125164353064E-6i
-8                        -4.411764705882353       5.571980139739634-6.689178601359911E-6i
-8                        -5                       5.48910579932923-6.613503762378093E-6i
-7.409780872709702        -5                       5.404924136302918-6.535579475945555E-6i
-4.204366953834539        -4.046139260378091       1.3312055515812442-1.885391383524522E-6i
-4.232237279915185        -4.1589911201886105      1.4262309162483768-1.9803747091743094E-6i
-4.120345401946956        -4.121479299950651       0.970291650313904-1.3570635055042577E-6i
-4.108864207601654        -4.272742039557807       1.0982288156094897-1.5057329880910068E-6i
-4.029407492651005        -4.167878535113899       0.6908101354264992-9.556838752256621E-7i
-3.985288701048193        -4.240945246135913       0.7194221469443874-9.858976204219946E-7i
-3.97050777952416         -4.346238309204156       0.8526039003323841-1.1601021789400414E-6i
-3.885124863444233        -4.26364124779026        0.5658051389336661-7.712679581642378E-7i
-3.857295901216056        -4.371250633139662       0.6867006605351726-9.314404280986727E-7i
-4.109818010135056        -4.00125778754426        0.882890108977984-1.272217552381387E-6i
-4.2079785223633985       -3.9409470314037005      1.4632887119233455-2.117785853338434E-6i
-4.282547732630158        -3.9945463940077484      1.6882945863338634-2.3990046407839253E-6i
-4.295226155595897        -4.072975911866771       1.6702278564144581-2.3414613738249134E-6i
-4.238152868086963        -4.442894222850899       1.5413332655754257-2.085232557351846E-6i
-4.327663335341751        -4.29376222177309        1.734013479055271-2.3664445481863893E-6i
-4.45660895849616         -4.480075252290495       2.0523787672309783-2.755579229125713E-6i
-4.350610009399203        -4.148895078267138       1.8187582897317438-2.5163963466558528E-6i
-4.319807005710448        -3.902143691804157       1.9461881069081357-2.7965430163635025E-6i
-4.217453584604731        -3.8471990317750118      1.6949538469866596-2.4970071488233894E-6i
-4.119864337316433        -3.896130124955415       1.1614189224986318-1.7243079241752775E-6i
-4.137894585526493        -3.807833980176441       1.5134108214785253-2.284044936925742E-6i
-7.5665795113541865       -4.12492360225306        5.62887164344924-6.743028224773295E-6i
-8                        -3.823529411764707       5.816036628085686-6.905616004754634E-6i
-7.106784588513753        -4.4971487373771755      5.359649362186126-6.496823669722135E-6i
-6.819561745419405        -5                       5.1475237174775375-6.2904622187390855E-6i
-4.92831069414149         -4.721544073408758       2.965728031375104-3.88240154739094E-6i
-5.091676632715828        -5                       3.22655500404975-4.18798860260053E-6i
-4.755000817225451        -5                       2.6263824465434467-3.4523214470930105E-6i
-4.578969703948168        -4.74532683962864        2.297486962963237-3.0453102233758033E-6i
-4.7529778622236325       -4.454080175041934       2.6952554782820806-3.580335268754539E-6i
-5.4376934553489455       -5                       3.7685680219220594-4.8242343081239225E-6i
-5.274718954393459        -4.700674460073382       3.554741055378478-4.5877675095393916E-6i
-6.513020623486308        -4.571184349940596       4.993396705416618-6.146544014373458E-6i
-6.267356903828639        -5                       4.737260025033879-5.880020261840774E-6i
-6.034647045827427        -4.624451174788158       4.5553872039474514-5.700645103834694E-6i
-5.80700941501795         -5                       4.255854107524386-5.369544614540757E-6i
-5.658180276293446        -4.670411326054771       4.107929714448034-5.217496658143184E-6i
-3.756133859145398        -4.309217615129297       0.4711688277843913-6.389762384426844E-7i
-4.068196984942857        -4.481597730750499       1.1848223131177884-1.6022454409505941E-6i
-3.908004727408345        -4.454644956996296       0.8616867215465749-1.1660960638095896E-6i
-4.22943085405239         -4.686293869882605       1.595088062483042-2.1369252293689516E-6i
-4.4185160951638345       -5                       1.9843355736320702-2.6358625353175084E-6i
-3.7668377635155936       -4.48300657672766        0.6825116365096556-9.219535728618005E-7i
-4                        -4.05                    0
-3.9325391620199124       -4.154226099013447       0.39591295823952577-5.442456263602062E-7i
-3.8102938906643686       -4.16627911208888        0.2747400685626786-3.74560027967596E-7i
-3.6812277065437056       -4.186203934781858       0.22518095504632876-3.0549162805194254E-7i
-4                        -3.95                    0
-4.4063688022003955       -4.016307706492266       2.0797955809450053-2.9137975238831106E-6i
-4.525468127196828        -4.204585424820463       2.2810235817848965-3.1092777199400496E-6i
-4.453366715566146        -3.8408491572031753      2.4399659746835245-3.476923681829107E-6i
-4.324045499028217        -3.7729569287948816      2.202090862670914-3.2254734627223886E-6i
-4.206889101127566        -3.7391155717274605      1.9399276943344115-2.9191723203998524E-6i
-4.045760997469033        -3.8258607783064953      1.1127144858103375-1.715608198829998E-6i
-4.099504907114701        -3.730864394117824       1.6507295302808365-2.551325472143949E-6i
-7.5548084802909425       -3.5454445628799376      5.943934443837549-7.0225301909694704E-6i
-8                        -3.2352941176470598      6.208225350780161-7.23273201783646E-6i
-7.121457793946           -3.8666794108081657      5.624182567202937-6.754141269469318E-6i
-6.657831842239151        -4.056351832345196       5.288354134062749-6.4550490384041315E-6i
-4.912974695321743        -4.165043877339602       3.15823232788285-4.21279247691997E-6i
-5.110978435296306        -4.403718730373547       3.3833682110030274-4.423454641322361E-6i
-5.42147423256474         -4.408372630603214       3.869875571799054-4.980592306372199E-6i
-6.1738410036396685       -4.170459209989412       4.86046327542556-6.048105958584225E-6i
-5.7492650523185835       -4.254161974153763       4.374498346137984-5.549703982821161E-6i
-7.538635322904318        -2.9625939235638135      6.398745214083525-7.396977941146359E-6i
-8                        -2.647058823529412       6.728552101559541-7.624927723102735E-6i
-3.608444442043704        -4.358512768131186       0.39642152693793425-5.358595895762956E-7i
-3.5422673998600835       -4.183214113341788       0.16195192835960506-2.1908460822653985E-7i
-3.465218255800754        -4.283258928436856       0.2354613012299645-3.180205008894652E-7i
-3.4065378856295077       -4.171309019634796       0.11301619384615562-1.526351981142726E-7i
-3.352725301924776        -4.2830140919057085      0.19083529703756635-2.575134114305002E-7i
-3.897255686247546        -4.667940258309948       0.9961778875898543-1.340400471748456E-6i
-4.082031373102218        -5                       1.3684523139205893-1.830952455841988E-6i
-3.6499384048155927       -4.609192168026915       0.6399641272187234-8.62347116612161E-7i
-3.2665205064378746       -4.181859442486207       0.0946222292856662-1.2765270629800785E-7i
-3.8872480222625168       -4.05                    0
-3.75460744771528         -4.05                    0
-3.6156191998333984       -4.05                    0
-3.888910435146046        -3.95                    0
-3.9347890959549834       -3.83382235683774        0.7524447147957513-1.2072253246503943E-6i
-4.6513419994270855       -3.939940755737006       2.803268473462182-3.871592290103715E-6i
-4.915203666065387        -3.87876193130393        3.411726728674214-4.619453776964817E-6i
-4.574145867262853        -3.7405414405168154      2.8928911748529766-4.103510969483076E-6i
-4.4444911197678705       -3.673204419873927       2.7134150259938115-3.947810772236381E-6i
-4.303188851119221        -3.6347125991897093      2.4614379470364427-3.687018176291886E-6i
-4.17323180186353         -3.621331775826774       2.186841714354287-3.3729303474503234E-6i
-3.99240425378645         -3.7216181928484438      1.4071323819060628-2.247035962235962E-6i
-4.0601186564076          -3.6187048088623017      1.9393554871199792-3.0783992726327263E-6i
-3.4765569229167266       -4.05                    0
-3.3374946460000547       -4.05                    0
-7.086153811777265        -3.2493717768787413      6.040510785443835-7.140911515254706E-6i
-6.638834239457259        -3.5056971850022363      5.632946008263759-6.818923958214967E-6i
-6.295722963256035        -3.7776360818640478      5.201627515361821-6.422875603502331E-6i
-5.30568019618243         -3.9953118945581614      3.9501245020161173-5.16358093770853E-6i
-5.853243649416514        -3.7858630259618087      4.797060142530228-6.068110663891512E-6i
-7.5333758044840575       -2.3692953652626034      6.9830280932796756-7.822307170344118E-6i
-8                        -2.0588235294117663      7.352849201897602-8.028155018529238E-6i
-7.06320603111765         -2.665335981848095       6.57743468492975-7.5959713407753015E-6i
-3.398537802263006        -4.455000210638623       0.3341972187621603-4.5065375452224477E-7i
-3.230162973732783        -4.3367266444156085      0.18529138287278077-2.4982646402035017E-7i
-3.742224213565717        -5                       0.8616860605469178-1.1574751316831613E-6i
-3.4503615808955876       -4.7378307419927435      0.5097801236101484-6.862592628739736E-7i
-2.9127498766644577       -4.267347377229237       0.08297375767441117-1.1179513575345324E-7i
-3.0438610813146596       -4.322322261578712       0.1281299326453755-1.7266746636895343E-7i
-2.8893563602358023       -4.4115198769103525      0.127233706759583-1.7139986550889594E-7i
-2.790522709033661        -4.2836183426725265      0.0723319569472497-9.744063107697306E-8i
-3.1287192658909877       -4.197483526317109       0.08266133020129009-1.1144198434262584E-7i
-2.992623192286904        -4.173432063960485       0.054875733567718264-7.395404233049702E-8i
-3.198432369083383        -4.05                    0
-3.7584272056580588       -3.95                    0
-3.811500133668589        -3.833950633814694       0.5882902133453295-9.90838855484132E-7i
-3.875896405142233        -3.7138581191787896      1.2196591665328043-2.0257354563017057E-6i
-5.057025297021474        -3.59959925046394        3.976154752629387-5.383387232746721E-6i
-4.792982563088253        -3.6912625303489035      3.411514837540309-4.731199473413966E-6i
-4.587338854052652        -3.5695346544339395      3.2095971565749264-4.614889187777487E-6i
-4.413472459170227        -3.5134542662779253      2.977109872057689-4.426913255406303E-6i
-4.25700312575792         -3.488212632637285       2.7278931170385943-4.19388164095873E-6i
-4.119385024412891        -3.4995514434805965      2.4326434464027282-3.8553138332744334E-6i
-3.9383915052152725       -3.6064430940855985      1.7486362831990012-2.8778987573980623E-6i
-4.012641547488031        -3.5193914117542984      2.178318435954547-3.5413940619360676E-6i
-6.599981822461516        -2.950479019750306       6.110734122847833-7.29858812900771E-6i
-6.1097733068813245       -3.270687247803257       5.489933266582275-6.811556905223819E-6i
-5.471124943908193        -3.400113229443577       4.7588454657373385-6.217072413671609E-6i
-5.066603744978516        -3.2512216837184784      4.471601694352985-6.125134581524453E-6i
-7.523540321846226        -1.7741927149497243      7.662953427797974-8.233504938665637E-6i
-8                        -1.4705882352941193      8.055678521257281-8.387956257084787E-6i
-7.055593332758077        -2.0690497579474827      7.239935175367331-8.07902088516686E-6i
-6.585776144922518        -2.3606803217328474      6.757027529472279-7.875885976254567E-6i
-2.716197677974097        -4.416540628075763       0.09638866702146899-1.2983006764275E-7i
-2.6726524749444054       -4.272457814102248       0.05667992127383298-7.634806632917028E-8i
-3.131144552644642        -4.605729213160933       0.2672178640378378-3.5993002790251976E-7i
-2.8247645827232963       -4.598184407874841       0.159106206079695-2.142850603019509E-7i
-3.348227662100417        -5                       0.47016831820072574-6.32703133043039E-7i
-2.5451894864273035       -4.342946909110642       0.0593051525852347-7.987677451489927E-8i
-2.854232986830695        -4.163142532512611       0.03980904441320087-5.3635530553287586E-8i
-2.720426087093764        -4.165834205699493       0.03252963188420275-4.3820771012240396E-8i
-2.580158628805175        -4.180196040079949       0.028865308447963593-3.88803059690839E-8i
-3.059370092166711        -4.05                    0
-2.9203078152500392       -4.05                    0
-3.6193680185721444       -3.95                    0
-3.6857662585195987       -3.829396027487534       0.5312304013429223-9.366190100729817E-7i
-3.4801615563193646       -3.95                    0
-3.552146322147809        -3.8272552947004543      0.4924253182485642-9.083075665355672E-7i
-3.340955094066585        -3.95                    0
-3.412272048617581        -3.8256139593789644      0.4673791212342305-9.01333083501876E-7i
-3.752698769409911        -3.7041181868008413      1.1111618490160302-1.9253422042087185E-6i
-3.8256482816876507       -3.58288546480975        1.6704829336699072-2.851270608420218E-6i
-4.777665359924438        -3.3639686034882503      3.8936102052759205-5.520745879968135E-6i
-4.52087772024688         -3.3808425275505996      3.450826767259957-5.091044033493237E-6i
-4.35646316874133         -3.3183638266996858      3.3163198657715753-5.06999419067156E-6i
-4.181530203517027        -3.342078931990028       2.9787448827950267-4.7199973078640585E-6i
-4.029505616406678        -3.395676182399115       2.5920735385886435-4.243032885686527E-6i
-3.9145150673895244       -3.473201853594428       2.1779577941424617-3.6534691033171686E-6i
-3.2017486318138046       -3.95                    0
-3.2721477082564814       -3.8222607446154413      0.4585220839985819-9.224245826939935E-7i
-3.0625421695610253       -3.95                    0
-3.134641611345391        -3.8219824437408025      0.4450433252804025-9.313505179529599E-7i
-7.523275333392846        -1.1812196355808449      8.408790942762337-8.570837947462173E-6i
-8                        -0.8823529411764723      8.812533816730616-8.657003566873932E-6i
-6.116147400613081        -2.651101605236658       6.186826004791166-7.564030086631825E-6i
-5.6326628007176724       -2.880646353611388       5.563732623550798-7.158437730150271E-6i
-5.272885612159417        -3.0174631499880014      5.048100941598278-6.7687580666352066E-6i
-4.789915025913362        -3.061065657103048       4.441626154861443-6.371296469782195E-6i
-5.000662879212749        -2.950737736873445       4.8698082975921-6.78157720283992E-6i
-7.048448581254929        -1.4765305784824543      7.978097001846799-8.508103809576355E-6i
-6.579718619509088        -1.7679667838400894      7.5024144721382955-8.431297722926995E-6i
-6.110225431286612        -2.0540532229258024      6.9621119808799845-8.297486769641012E-6i
-2.523772925846976        -4.6358845118442495      0.10099526751643371-1.3601387153794152E-7i
-2.3611653586402697       -4.384970982365317       0.049367723480957755-6.648814074224719E-8i
-2.2579612081063107       -4.54022600477923        0.05732631684440175-7.720375725338746E-8i
-2.098737376138617        -4.418579221845025       0.03476706659792937-4.68223775248518E-8i
-2.2203437596679403       -4.340116734434202       0.03430512302100536-4.6201156364607074E-8i
-2.8640176231357355       -5                       0.21405422448250688-2.882278011307124E-7i
-2.0936843231338793       -4.291683462984208       0.023454353694469132-3.1587304014843036E-8i
-1.9612500010803307       -4.3323652860805675      0.021802797198968146-2.936269322106244E-8i
-1.639327486465272        -4.368508299976792       0.014341961056826414-1.931464857406254E-8i
-1.667774737206721        -4.27410015286507        0.010823875451295427-1.4576792360208968E-8i
-1.7813374634475905       -4.362469566394724       0.017790046652131644-2.3958349729141562E-8i
-2.4446821118315762       -4.212194372934808       0.028574328583949732-3.848573295346665E-8i
-2.297436230018073        -4.204796219707661       0.02138515858069529-2.8801686477572175E-8i
-2.1663536387278572       -4.190458385507158       0.015647549111890226-2.1073743658977695E-8i
-2.7812455383333674       -4.05                    0
-2.6421832614166956       -4.05                    0
-2.5031209845000237       -4.05                    0
-2.9233357073082455       -3.95                    0
-2.993847156355031        -3.823669715211809       0.4290045201347488-9.330215812461384E-7i
-3.6248901766902133       -3.7021669346317725      1.020167144064649-1.84392795666441E-6i
-3.4904198741679493       -3.7063548467044525      0.9364938264508157-1.7663878489884789E-6i