% Model:              VLR_3_01V03.mph
% Version:            COMSOL 5.5.0.292
% Date:               Jun 28 2020, 19:00
% Dimension:          2
% Nodes:              2111
% Expressions:        1
% Description:        Electric potential
% Length unit:        cm
% x                       y                        V2 (V)
-1.8004163664931148       -0.8709195756576668      9.999949466892122+9.584195375949167E-4i
-1.9485514861871704       -0.45071843281340146     9.999949466892224+9.584131562722578E-4i
-2.2711286695848423       -0.8747719564847298      9.23429998544191+8.042721702739528E-4i
-2.046467396884983        -1.2391267478904204      8.95601348380667+8.054428985985312E-4i
-1.5629278532010311       -1.2479008476992133      9.999949466892007+9.584253607659463E-4i
-2                        0                        9.999949466892252+9.584063749072945E-4i
-2.3705470026855395       -0.09558455886780351     9.92705908830264+8.340707080197845E-4i
-1.7540388034517085       -1.620815045469213       8.579711908755051+7.889331066378119E-4i
-1.247879584141205        -1.5629448305949811      9.999949466891895+9.584303273127247E-4i
-1.9485527389473938       0.4507130168306763       9.999949466892247+9.583995935759357E-4i
-2.33297255542183         0.38234571399431383      10.285495416107635+8.347876412814098E-4i
-1.3951558306765957       -2.0178237363528684      7.91667017992309+7.378515548841639E-4i
-0.8708951995146321       -1.8004281578175703      9.999949466891788+9.58434147007603E-4i
-1.8004281578175703       0.8708951995146321       9.999949466892193+9.583932126805084E-4i
-2.240130279164952        0.841015944271162        10.682982967409115+8.179413228245454E-4i
-0.893437829419731        -2.257333045853055       7.676373567123898+7.261008204041711E-4i
-0.4507130168306763       -1.9485527389473938      9.99994946689173+9.58436562393472E-4i
-1.5629448305949811       1.247879584141205        9.99994946689208+9.583873889222428E-4i
-2.00524718450843         1.319914428567236        11.139286918318263+7.993472385899458E-4i
-0.4282419230988671       -2.3386294602542383      7.7631788104704595+7.392593941686775E-4i
0                         -2                       9.999949466891696+9.584374100388283E-4i
-1.2479008476992133       1.5629278532010311       9.999949466891977+9.583824215102201E-4i
-1.6676695755948459       1.7372967469605785       11.602603517833218+7.748173783525561E-4i
0.45071843281340146       -1.9485514861871704      9.999949466891687+9.584365625544093E-4i
0.28534007359281305       -2.3873242791641744      7.585360982579101+7.226087027381745E-4i
-0.8709195756576668       1.8004163664931148       9.99994946689187+9.583786038634632E-4i
-1.2305046342610673       2.0642248333756195       11.979423381073149+7.532372110480492E-4i
0.7635123449486695        -2.3433859874822907      7.415082701667841+7.023283010208753E-4i
0.8709195756576668        -1.8004163664931148      9.999949466891737+9.584341436211144E-4i
-0.45071843281340146      1.9485514861871704       9.999949466891774+9.583761869953877E-4i
-0.7376699922968597       2.3322637018127557       12.499481325355701+7.109403633013936E-4i
1.2385621748245428        -2.0546966244780984      8.046279843570465+7.556410338632647E-4i
1.2479008476992133        -1.5629278532010311      9.999949466891787+9.584303267468086E-4i
0                         2                        9.99994946689172+9.583753387693718E-4i
-0.2959654692995729       2.388345716473931        12.425332472597221+7.214775372186788E-4i
1.6674841773580165        -1.7295343708036461      8.422136758360336+7.774249250049977E-4i
1.5629448305949811        -1.247879584141205       9.999949466891843+9.584253604109907E-4i
0.4507130168306763        1.9485527389473938       9.99994946689171+9.583761865019565E-4i
0.42117855404595383       2.324765079898339        12.155185388887178+7.472010503151856E-4i
1.9993864451159522        -1.3176762702809124      8.875416812338981+8.015249835738055E-4i
1.8004281578175703        -0.8708951995146321      9.999949466891902+9.584195368107297E-4i
0.8708951995146321        1.8004281578175703       9.99994946689175+9.583786029144699E-4i
0.8985273450707841        2.2152267379033317       12.126186672917582+7.453985226020412E-4i
2.2151733266410645        -0.855107611891562       9.329200194875703+8.234095243445121E-4i
1.9485527389473938        -0.4507130168306763      9.999949466891948+9.584131560266988E-4i
1.247879584141205         1.5629448305949811       9.999949466891804+9.583824212244115E-4i
1.339822782926624         1.940968460011082        11.679018687909187+7.803557636063293E-4i
2.3908065775282594        -0.3640509406418806      9.698161596333337+8.185383976092421E-4i
2                         0                        9.999949466891985+9.584063745344952E-4i
2.3735711161863025        0.10144736239575819      10.077579527653265+8.330494215433535E-4i
1.9485514861871704        0.45071843281340146      9.999949466891975+9.583995933280518E-4i
1.5629278532010311        1.2479008476992133       9.999949466891877+9.583873883199208E-4i
1.7289395692808445        1.6296898940563207       11.396328781146224+7.92893444994042E-4i
1.8004163664931148        0.8709195756576668       9.99994946689194+9.583932121533641E-4i
2.0363538861084662        1.2485134451666122       11.04544176679296+8.0631255017828E-4i
2.2758202281424547        0.8662661130550481       10.759293214417262+8.040756728809614E-4i
-1.0876451913682574       -0.11793590440138024     9.999949466892515+9.584089037161742E-4i
-1.3                      0                        9.999949466892453+9.584063746137869E-4i
-1.2650809307878883       -0.2992828738114655      9.999949466892414+9.584127709556362E-4i
-1.168571833791987        -0.5695962335444581      9.999949466892332+9.584185805126961E-4i
-0.989603663393737        -0.3435609994442198      9.999949466892486+9.584137552528037E-4i
-0.9307564128036256       -0.5991460075685171      9.999949466892387+9.584192657306225E-4i
-1.0150967759289806       -0.8121444055699633      9.999949466892225+9.584238421241367E-4i
-0.7386774312652029       -0.7491504777426241      9.999949466892346+9.584225439744385E-4i
-0.8121419222731038       -1.0150987627253556      9.999949466892119+9.584282948830455E-4i
-0.5881370555038595       -0.9213755612432625      9.999949466892257+9.584263087670858E-4i
-0.5695934437318141       -1.1685731936244872      9.999949466892058+9.584316995298698E-4i
-1.044373158320511        0.1193762403380347       9.999949466892543+9.584038133526833E-4i
-1.26507856435646         0.2992928766372468       9.99994946689244+9.583999821142455E-4i
-1.0304807626801489       0.36395759685966567      9.9999494668925+9.583985615737618E-4i
-1.1685731936244872       0.5695934437318141       9.999949466892376+9.583941731335298E-4i
-0.2992928766372468       -1.26507856435646        9.999949466891998+9.584338589662429E-4i
-0.37156366944114244      -0.9729829184296485      9.999949466892247+9.58427466196095E-4i
-0.8960468413288223       0.5457288381345544       9.999949466892476+9.583946293616098E-4i
-1.0150987627253556       0.8121419222731038       9.999949466892287+9.583889104385395E-4i
-0.1423119460726423       -1.0727476423268594      9.999949466892168+9.584296628815556E-4i
0                         -1.3                     9.999949466891946+9.584346402245662E-4i
-0.7768452529697469       0.7601671044561591       9.999949466892401+9.583899749430384E-4i
-0.8121444055699633       1.0150967759289806       9.999949466892213+9.583844560504946E-4i
0.11565669798483136       -1.0359696403546224      9.999949466892174+9.584288610809157E-4i
0.2992828738114655        -1.2650809307878883      9.999949466891929+9.584338587142158E-4i
-0.5698113726457039       0.8596036791670819       9.999949466892373+9.583877796927796E-4i
-0.5695962335444581       1.168571833791987        9.99994946689215+9.583810506281223E-4i
0.34840984564260485       -1.028976271861215       9.999949466892142+9.584286894465251E-4i
0.5695962335444581        -1.168571833791987       9.999949466891952+9.584316983276524E-4i
-0.3608903885211499       1.0052254502866163       9.999949466892284+9.583845796251277E-4i
-0.2992828738114655       1.2650809307878883       9.999949466892087+9.583788881256011E-4i
0.8121444055699633        -1.0150967759289806      9.999949466891996+9.584282920546195E-4i
0.5145084520809705        -0.8944213621140242      9.999949466892188+9.584257355233734E-4i
0                         1.3                      9.999949466892037+9.583781067923269E-4i
-0.11316675792328162      1.0180814687334507       9.999949466892268+9.583842783258108E-4i
0.13100753337202814       1.070911472288787        9.999949466892211+9.5838312587655E-4i
0.2992928766372468        1.26507856435646         9.999949466892028+9.583788911073756E-4i
1.0150987627253556        -0.8121419222731038      9.999949466892042+9.584238390478493E-4i
0.7238892428203658        -0.7444862387406049      9.999949466892218+9.584224454889067E-4i
0.8876125322425666        -0.5579609863782428      9.999949466892245+9.584183852623973E-4i
1.1685731936244872        -0.5695934437318141      9.999949466892083+9.584185767290754E-4i
0.5695934437318141        1.1685731936244872       9.99994946689204+9.583810502411715E-4i
0.3534441297932606        0.9736174243827747       9.999949466892238+9.583852671793358E-4i
0.585271853213704         0.9248442575284146       9.99994946689221+9.583863646486935E-4i
0.8121419222731038        1.0150987627253556       9.999949466892062+9.583844543679782E-4i
1.0327145670548172        -0.37565673979146263     9.999949466892236+9.584144388285306E-4i
1.26507856435646          -0.2992928766372468      9.999949466892128+9.584127670625957E-4i
1.3                       0                        9.99994946689217+9.58406374680482E-4i
1.041664971457573         -0.15600911607726295     9.99994946689229+9.584097222267706E-4i
0.7275690370453636        0.7293005722378524       9.99994946689227+9.583906330151881E-4i
1.0150967759289806        0.8121444055699633       9.99994946689209+9.583889071461505E-4i
0.914543692196985         0.5622574395424031       9.999949466892275+9.583942757525343E-4i
1.168571833791987         0.5695962335444581       9.999949466892138+9.58394168726409E-4i
1.0707544063096703        0.08521632604171768      9.999949466892303+9.584045467085831E-4i
1.2650809307878883        0.2992828738114655       9.999949466892199+9.583999786057219E-4i
0.9733004215806192        0.3267288888087006       9.999949466892323+9.58399354038073E-4i
-7.616974783298779        -4.60620431792052        5.553368848578284+2.364037988119884E-4i
-8                        -4.411764705882353       5.633704172062927+2.3901048044457717E-4i
-8                        -5                       5.551052625841004+2.3631349307229291E-4i
-7.409780872709702        -5                       5.467058449075064+2.3353633536312207E-4i
-4.755000817225451        -5                       2.671324000039087+1.2347266867018507E-4i
-4.916668434262036        -4.707391751486714       2.996656075712291+1.380694173631182E-4i
-5.091676632715828        -5                       3.2787287859502214+1.4976105630136718E-4i
-4.590167088050777        -4.734790784160499       2.361356959855921+1.099877664160591E-4i
-4.278421254673375        -3.997051890421917       1.7097856668337985+8.497955641076474E-5i
-4.207511638683512        -4.050927760460156       1.3737319524828857+6.800035833849908E-5i
-4.208111535673931        -3.9445570886893635      1.4949402000191767+7.552050929140406E-5i
-4.291802216375679        -4.083011431783149       1.6895633954601919+8.283262016251663E-5i
-4.235202489235776        -4.1615800648056975      1.4681577535662085+7.139622888345573E-5i
-4.240118969842217        -4.434515927590005       1.5732591171884132+7.473728148160281E-5i
-4.113100476556932        -4.273962064162473       1.1344569689754218+5.453900051248495E-5i
-4.330223355053553        -4.294105385633051       1.7760621094954205+8.501500677386753E-5i
-4.446514610937091        -4.465551015265819       2.0684798994939997+9.762220793592207E-5i
-4.360634314232885        -4.153738394253776       1.8869285784592953+9.140307466351161E-5i
-4.123201787867481        -4.117912453772706       1.0007128053821717+4.9042017273273756E-5i
-4.028414930538705        -4.159777088971774       0.6835211520547174+3.3169173779633255E-5i
-3.9794290048682854       -4.240397160616326       0.7191561903823386+3.4554069507936877E-5i
-3.9593277040095174       -4.36198479313449        0.8674445417124215+4.137140517378916E-5i
-3.8691724727728403       -4.264627600789819       0.5538465885487133+2.646974560199369E-5i
-3.738444316269427        -4.2797266353993155      0.4189065089862453+1.9940919862002838E-5i
-3.8008794025787482       -4.404298224359815       0.6593546630245403+3.1330150271115016E-5i
-4.077778861724629        -4.507675982924111       1.2450249951402148+5.903017422641635E-5i
-3.9119033384007103       -4.48836375896079        0.9168329380410016+4.350097912843546E-5i
-4.251099357414965        -4.680668869503852       1.6671624003600114+7.842195292753284E-5i
-4.4185160951638345       -5                       2.019981551697784+9.428883314620462E-5i
-4.109551955773516        -4.00181076352716        0.9032298956933918+4.54701311527677E-5i
-4.321392052417856        -3.9021538065402512      1.9994746708859157+1.0040010761309156E-4i
-4.215697109603468        -3.849056329358543       1.729778957606136+8.888988186510752E-5i
-4.118486772416171        -3.8974672782407285      1.1831094907663307+6.122804940495942E-5i
-4.136654062356509        -3.809997785491929       1.5464226259980753+8.124124193099862E-5i
-7.567718643075409        -4.122023044909125       5.691952348719211+2.409762758264166E-4i
-8                        -3.823529411764707       5.876857406567848+2.4672281790567754E-4i
-6.819561745419405        -5                       5.209938740605606+2.2479781169573257E-4i
-7.106985223844052        -4.4866543466909645      5.4248099459172305+2.3225478265959758E-4i
-6.51858567949672         -4.559131332717428       5.0632515596657734+2.1993336213274456E-4i
-6.267356903828639        -5                       4.799292649352378+2.1016089566753215E-4i
-5.80700941501795         -5                       4.31614608605047+1.9194814028805748E-4i
-6.039238101179623        -4.594562010244267       4.6296157438240515+2.0427716419419437E-4i
-5.260430521208299        -4.675707047204165       3.5937412335218917+1.6341122939850084E-4i
-5.4376934553489455       -5                       3.8257401760221352+1.7248405056240125E-4i
-5.628184182771841        -4.634668620326741       4.137514410040584+1.8542085854665602E-4i
-4.734104669590977        -4.441422564585948       2.708591845316423+1.2660012351774005E-4i
-5.059511259718181        -4.391251578789235       3.3557136861974315+1.5476341238643566E-4i
-4.41335692183073         -4.014324138417936       2.1497466841097475+1.0542699723400161E-4i
-4.534772317324397        -4.207029434232531       2.349019294066349+1.12254447656561E-4i
-4                        -4.05                    0
-3.9257504875340543       -4.150424428047238       0.3802099539862121+1.8318701974225316E-5i
-3.8109360360693603       -4.152241588763371       0.2495225806648853+1.1937432411684204E-5i
-3.6778367157128113       -4.154828186475979       0.17738992553344823+8.446841908464094E-6i
-3.60633087043107         -4.250804153969835       0.27777239043203833+1.3194929709243977E-5i
-3.543884451585743        -4.15598282149255        0.13276318435867304+6.304740153616814E-6i
-3.4132426993899916       -4.16495845469584        0.11074769549511619+5.250748574402097E-6i
-3.48582490630043         -4.285310958907949       0.25179569168338173+1.1939803583316089E-5i
-3.3589236942556453       -4.276161749807004       0.19138616717943607+9.06654815838412E-6i
-3.6001797614268667       -4.425033880320453       0.4627252191937479+2.1935101041049733E-5i
-3.746454910135013        -4.544738284085542       0.7213100310683543+3.415849735751963E-5i
-3.9459577163674817       -4.732889752654277       1.1209931885281266+5.2883668111622424E-5i
-4.082031373102218        -5                       1.3940665731999367+6.55151743071508E-5i
-3.7439832476632247       -4.726162861537472       0.8246300821125375+3.8953240875154896E-5i
-7.555334271713638        -3.542547050977438       6.006435023061996+2.5095124408170896E-4i
-8                        -3.2352941176470598      6.266828090680835+2.583746596604364E-4i
-7.540867749704923        -2.9591681906146174      6.459800984494301+2.643149171542405E-4i
-8                        -2.647058823529412       6.782797691303444+2.7233774423917316E-4i
-4.452033899469936        -3.838374428205703       2.498121727731791+1.245571271923421E-4i
-4                        -3.95                    0
-4.320737784761674        -3.7769511722412976      2.241642655956717+1.1459233033898567E-4i
-4.206674832605926        -3.742588367554699       1.9858109216428816+1.0401606671222511E-4i
-4.044401397070695        -3.8273801123825715      1.1360997975453244+6.087528110491427E-5i
-4.098010200086289        -3.733496839923104       1.6897513957735193+9.073695332274271E-5i
-7.1261351912601425       -3.8579450782348674      5.6931264613451225+2.415469295605266E-4i
-6.6732637574115055       -4.040346712891838       5.369697041923417+2.3128686331331082E-4i
-6.206672885814892        -4.149512849015887       4.964758418118873+2.1763256315860983E-4i
-5.807609790444184        -4.224052020731709       4.521667291132222+2.016361808448813E-4i
-5.415310368579045        -4.312344250447348       3.9670462429092193+1.800893132573548E-4i
-4.855522740085168        -4.141894909966788       3.1187403547047303+1.4683657923585377E-4i
-5.175030824583557        -4.068748949044448       3.7537959885773433+1.737030041619829E-4i
-4.665019262669993        -3.9165382702579383      2.9208195666052674+1.4149403762882541E-4i
-4.559959100207761        -3.7335674631059135      2.9392348362049834+1.4621990477860984E-4i
-3.2767715724900457       -4.172295324585691       0.09127830123869675+4.32319944114643E-6i
-3.8872480222625168       -4.05                    0
-3.75460744771528         -4.05                    0
-3.6156191998333984       -4.05                    0
-3.4765569229167266       -4.05                    0
-3.3374946460000547       -4.05                    0
-3.392387960713262        -4.438924693162017       0.32638702175720796+1.545195999200046E-5i
-3.224429162507218        -4.328964016055262       0.18235108001100342+8.63130545752148E-6i
-3.5199939746735978       -4.72227537296396        0.5756273405468918+2.720705282500658E-5i
-3.742224213565717        -5                       0.8779258849579938+4.141075622180613E-5i
-7.089877441928293        -3.2444993866727843      6.107048839897459+2.55265136952729E-4i
-7.529466430560748        -2.3669451904103274      7.037266129800101+2.7942776151201193E-4i
-8                        -2.0588235294117663      7.399864528616592+2.8668447404190815E-4i
-7.068668842527051        -2.6633109993405393      6.639198482253238+2.7138483888117584E-4i
-7.527346123364574        -1.7716608088510573      7.7097280053707165+2.94034965478815E-4i
-8                        -1.4705882352941193      8.092266734595725+2.994778044680254E-4i
-4.431738274931598        -3.6867117186708804      2.724911709204178+1.3851549069141943E-4i
-4.53649516846002         -3.6020583735243354      3.1240097112115968+1.577158436527415E-4i
-3.888910435146046        -3.95                    0
-3.9366702478776676       -3.836222723001268       0.7703487433691921+4.27495175173549E-5i
-4.304536039495917        -3.640689124349146       2.519635522249233+1.3137961410548973E-4i
-4.177077072754126        -3.623101687127724       2.259557951196049+1.2100055485838203E-4i
-3.993970224613096        -3.7225028627213503      1.4574620452266203+8.057765864292962E-5i
-4.058808407559756        -3.617313076987945       2.0090379465207886+1.1059741331956946E-4i
-6.639388700947507        -3.498824187203067       5.703060866164745+2.4385360503515323E-4i
-6.308255692514199        -3.740620822528916       5.303522334840407+2.3090196164499873E-4i
-5.895064022363979        -3.7379321619056745      4.946134221489372+2.2002039764970816E-4i
-5.539084733352665        -3.9175370589216434      4.399402457773057+1.9965703644959739E-4i
-4.953185131381667        -3.8283457895477206      3.6017063255310986+1.7106550755289858E-4i
-5.234045658019182        -3.7523034915515714      4.1362788150564205+1.925064690095835E-4i
-4.741661835475959        -3.6297300781672046      3.4794585101695823+1.7076709919098193E-4i
-2.917226997732466        -4.270299270074264       0.08631000880305198+4.082716058576747E-6i
-3.0471450688080637       -4.3177580586765645      0.1292712424610548+6.115978183481615E-6i
-2.8981870199161923       -4.4149381439731785      0.13268542752295376+6.275423215246491E-6i
-2.7946570264853867       -4.288735558273838       0.07576372117836672+3.583280041417325E-6i
-3.1341998009088803       -4.1836615394325545      0.07725975515736723+3.6568049708995938E-6i
-2.994234457861651        -4.170161485555677       0.05462416573413237+2.5844398192783896E-6i
-3.198432369083383        -4.05                    0
-2.7171865633388324       -4.417544777435134       0.09861561365728543+4.663461421739569E-6i
-2.6760936092963457       -4.276969509165555       0.059216141655728013+2.8004074394014118E-6i
-2.55250901520796         -4.343219087005322       0.061238905035650944+2.8958210089006555E-6i
-3.1272437607743426       -4.603073176389616       0.2697578824282844+1.2756731645602543E-5i
-2.8263207481807338       -4.580928378660921       0.15892664666449038+7.514928472939088E-6i
-3.348227662100417        -5                       0.4790411134592516+2.263355716294813E-5i
-7.528618451352726        -1.1807084702648805      8.44094609638321+3.0595856798687075E-4i
-8                        -0.8823529411764723      8.835748550643418+3.090372236608536E-4i
-6.608764186404674        -2.947183566993162       6.182566914659426+2.6091599823622504E-4i
-7.057687126264015        -2.070528581941398       7.2901555667413005+2.884562788505321E-4i
-6.591689772644503        -2.3639746445051744      6.816197415845751+2.8116880005604343E-4i
-7.058536983226518        -1.4791600854537368      8.016944616922958+3.036042931359919E-4i
-4.597298700095433        -3.4545400657804786      3.523287769603322+1.783527182970026E-4i
-4.427129992563021        -3.5243361416974572      3.0613710764961684+1.5821422949678272E-4i
-3.7584272056580588       -3.95                    0
-3.8170105814901754       -3.832649960939622       0.6248222967563395+3.619219388391344E-5i
-3.879849986478576        -3.712727203591832       1.2804885794420127+7.330653575612212E-5i
-4.272189047061366        -3.4940027760681773      2.8263096951355275+1.505579563423812E-4i
-4.1232353139926765       -3.503216245058444       2.5120922815238163+1.3788106056484686E-4i
-3.9441530287302884       -3.6020413293778573      1.844042039750499+1.0471562822934141E-4i
-4.016268158489865        -3.5187473202441715      2.2684293743181096+1.2745554555271355E-4i
-6.141849297497634        -3.2431504806277838      5.611019833696252+2.450626416032452E-4i
-5.7727281348468065       -3.3728578253484556      5.173192071755609+2.3206516623623888E-4i
-5.456686356136915        -3.4855733771926496      4.719554736295231+2.169532780128436E-4i
-5.046241244641107        -3.4613122830513947      4.222741506543884+2.0200772412832293E-4i
-4.771739429991202        -3.3922880874391623      3.923203625201681+1.9456319943892197E-4i
-4.617401581588039        -3.286140436148868       3.8863099862988846+1.98217815875957E-4i
-2.853848249588415        -4.162996569886446       0.04049547899220362+1.9155000507288635E-6i
-2.7266215281046344       -4.165427500844519       0.03338295383217759+1.578839157667181E-6i
-2.588197384522768        -4.178366903282493       0.02940454671078686+1.390539321581237E-6i
-3.059370092166711        -4.05                    0
-2.9203078152500392       -4.05                    0
-3.6193680185721444       -3.95                    0
-3.687969610264721        -3.8263560581000897      0.5722234828016766+3.4562799034382034E-5i
-3.4801615563193646       -3.95                    0
-3.5514646592142194       -3.825287512690319       0.5283119345541419+3.322820440057971E-5i
-3.340955094066585        -3.95                    0
-3.41126805731786         -3.825618612802881       0.49728266820661154+3.250572499099465E-5i
-3.2017486318138046       -3.95                    0
-3.272179831996173        -3.8249720838961156      0.48145490139824226+3.2615742600496203E-5i
-3.0625421695610253       -3.95                    0
-3.1346016922149897       -3.8252165571812444      0.46910279863640847+3.284862988586431E-5i
-2.4431071078979336       -4.208057839231935       0.02831839263300891+1.3390835242555257E-6i
-2.358309154362316        -4.376234092803687       0.048892636942036216+2.3118623414128353E-6i
-2.29394741792818         -4.202721036188589       0.021384104213450387+1.011143929952362E-6i
-2.209873841545347        -4.339840923338801       0.03432998939286463+1.6232466094587786E-6i
-2.0910225905920736       -4.297144993859561       0.024305628290673613+1.1492475668515405E-6i
-2.0935858421414446       -4.425972840695075       0.035745189936360625+1.690132755317444E-6i
-1.9601590709739565       -4.343453660432961       0.022985246503185657+1.0868032197487875E-6i
-2.5331215887265097       -4.627683157060812       0.10358761237277857+4.897895368244652E-6i
-2.2529357469262905       -4.544580405277039       0.05833149108278499+2.7580700713017714E-6i
-2.8640176231357355       -5                       0.2181534380696487+1.0313321563883959E-5i
-7.529286930892119        -0.5913964069706176      9.20947103124813+3.1375371332774583E-4i
-8                        -0.29411764705882604     9.608495770381486+3.1413884402686695E-4i
-7.530089759709245        -0.00234831149339886     9.99646880515853+3.1647441868774324E-4i
-8                        0.2941176470588207       10.39073569506625+3.141411386722355E-4i
-7.53115962179015         0.5869482055667269       10.783816134576183+3.13786028411004E-4i
-8                        0.8823529411764666       11.163473046611253+3.0904410183946743E-4i
-7.5329195521785834       1.176912715622182        11.553193660715275+3.06008987224396E-4i
-8                        1.4705882352941124       11.906935885584351+2.994892499856554E-4i
-7.5346744783179345       1.76791154219762         12.284379041882127+2.9410934984586763E-4i
-8                        2.0588235294117583       12.599312223494737+2.867003270048082E-4i
-7.534125656032507        2.3561483727805848       12.949872836702282+2.7971801046468254E-4i
-8                        2.647058823529404        13.216355663446413+2.7235721257530516E-4i
-7.059899330636081        -0.888991445051388       8.790332502837172+3.148569699747118E-4i
-6.121299744138974        -2.6695682492632113      6.23823555088217+2.694252192187518E-4i
-6.588241088984087        -1.7768145533179316      7.545603323333284+3.006795015722937E-4i
-6.117553265610895        -2.07738989895146        7.000098123796739+2.9527544511580463E-4i
-6.591053780147692        -1.1866111307696487      8.335241626792326+3.1663140612515336E-4i
-4.410264158713377        -3.3253139114967403      3.483771189048123+1.8343355313918367E-4i
-3.756547097006234        -3.7016763028351627      1.1771285252980042+6.999103609727594E-5i
-3.8307434913986          -3.5809848207072754      1.758034755417448+1.0312993935898285E-4i
-4.1987319642252725       -3.346720498658019       3.093573646042263+1.6934980978940874E-4i
-4.035332850298772        -3.398482949438849       2.6903561201867707+1.520144633198531E-4i
-3.9202107552509893       -3.4722390246381725      2.2794271463360474+1.316669238537678E-4i
-5.635809987282549        -3.001762284092789       5.488861452523879+2.4890659897687956E-4i
-5.216915475766233        -3.168276893121327       4.857546855766762+2.298694581915351E-4i
-4.856093788155469        -3.1297175740478673      4.498962199792089+2.2307351091488452E-4i
-4.547631678208451        -3.0894222392197763      4.1958254343409145+2.186248236856294E-4i
-2.7812455383333674       -4.05                    0
-2.6421832614166956       -4.05                    0
-2.5031209845000237       -4.05                    0
-2.9233357073082455       -3.95                    0
-2.9940166579498952       -3.8266270490519396      0.4569523104055941+3.302735988308808E-5i
-3.6249775009866427       -3.698345940679345       1.0900337676498586+6.734890045118992E-5i
-3.4850364686036617       -3.7013904546752414      1.010444298958516+6.488753246784375E-5i
-3.3378065599760136       -3.70205172383729        0.9635904213527352+6.429775761535496E-5i
-3.206698260965921        -3.6969439592688973      0.9574413590849454+6.598183885090794E-5i
-3.070424601003115        -3.702756250870508       0.9191519709052384+6.536972445215344E-5i
-2.163339265513452        -4.192193361757118       0.016060902197053636+7.594208802384922E-7i
-2.364058707583352        -4.05                    0
-2.22499643066668         -4.05                    0
-2.015102134475188        -4.1859828966749175      0.01203004044200186+5.688173783924911E-7i
-1.8839716398402662       -4.202889460154049       0.010870619230817308+5.139916205475128E-7i
-1.7787206221484695       -4.362133204347534       0.01803447914758226+8.527111730329286E-7i
-1.6652809864756641       -4.275637639592764       0.011058130100497407+5.228527769232587E-7i
-1.6356808693076768       -4.374952853964704       0.014795844941083871+6.995787508290126E-7i