% Model:              VLR_3_01V03.mph
% Version:            COMSOL 5.5.0.292
% Date:               Jun 28 2020, 19:08
% Dimension:          2
% Nodes:              2170
% Expressions:        1
% Description:        Electric potential
% Length unit:        cm
% x                       y                        V2 (V)
-1.5524059145485165       -0.7238721497441369      9.554840022208014-3.0982791106474345E-5i
-1.2990322911339665       -0.750010070993209       10.000032189737269-3.4217366060605156E-5i
-1.409536313227687        -0.5130374076931423      10.000032189737261-3.422667411716428E-5i
-1.4036080168831755       -0.9819155577643657      9.38571870911994-3.0814393886917074E-5i
-1.149063052439335        -0.9641857194123948      10.000032189737267-3.4208910219259734E-5i
-1.6548741720547302       -0.44393074704101804     9.729993981461512-3.1099014534512945E-5i
-1.4772109886979958       -0.2604759007468612      10.000032189737256-3.423655514257566E-5i
-1.7069790507670872       -0.15013188519544104     9.909251184452783-3.116533645258779E-5i
-1.5                      0                        10.000032189737258-3.42467266107753E-5i
-1.7067284642166485       0.1495981453223268       10.090382562338549-3.117805809821275E-5i
-1.4772106593504082       0.26047776853607507      10.00003218973727-3.42568981608828E-5i
-1.2128053684279931       -1.210475665252934       9.227305886501055-3.061103509108058E-5i
-0.9642335055494975       -1.1490229531109146      10.000032189737269-3.420157219323501E-5i
-0.984871002134531        -1.4027654964664409      9.087556683580738-3.040143518805897E-5i
-0.7500124149660692       -1.2990309378135554      10.00003218973727-3.4195585818948303E-5i
-0.7264768500220085       -1.5532027317483041      8.972437786101269-3.0204442411481406E-5i
-0.5130398575996976       -1.4095354215180553      10.000032189737269-3.419115718421774E-5i
-1.652846685068397        0.4443358403186744       10.268401709785843-3.1149922650716194E-5i
-1.4095354215180553       0.5130398575996976       10.00003218973729-3.4266779236708966E-5i
-1.5496650950598807       0.7233493210872718       10.440291691014382-3.106304437558221E-5i
-1.2990309378135554       0.7500124149660692       10.000032189737286-3.427608733572577E-5i
-0.4456029004686389       -1.6554908591752733      8.89490907265475-3.0068384138013913E-5i
-0.26047776853607507      -1.4772106593504082      10.000032189737267-3.418843789992402E-5i
-1.402285870302684        0.9817357673651785       10.611452190654665-3.088876555264543E-5i
-1.1490229531109146       0.9642335055494975       10.000032189737272-3.42845450482003E-5i
-0.1512456873626022       -1.709036903422271       8.847543580360197-2.9967768597737758E-5i
0                         -1.5                     10.000032189737247-3.4187516361463336E-5i
-1.209900453470178        1.2099233421588134       10.765249695021486-3.0718754138135565E-5i
-0.9641857194123948       1.149063052439335        10.00003218973727-3.4291882859728094E-5i
0.14938115091952603       -1.7075929720758634      8.855467008185544-2.9996889243093323E-5i
0.2604759007468612        -1.4772109886979958      10.000032189737222-3.418843800104505E-5i
-0.9820219505364608       1.4031714896718206       10.908343238660992-3.0502753024170428E-5i
-0.750010070993209        1.2990322911339665       10.000032189737265-3.42978677892534E-5i
0.44490721232479546       -1.6548060110307268      8.898906376783364-3.0083390514323278E-5i
0.5130374076931423        -1.409536313227687       10.00003218973719-3.419115741770766E-5i
-0.7230202927522164       1.5508715451924093       11.012178886116258-3.0355620013768984E-5i
-0.5130374076931423       1.409536313227687        10.000032189737246-3.430229651811932E-5i
0.7230009425561288        -1.5483435969433603      8.99860615632099-3.0306311777436758E-5i
0.750010070993209         -1.2990322911339665      10.00003218973717-3.4195586177416414E-5i
-0.44350033854644294      1.6540162297210381       11.095900550977618-3.0199140751869968E-5i
-0.2604759007468612       1.4772109886979958       10.000032189737233-3.4305015917798225E-5i
0.9797890684979246        -1.4005615762650554      9.105352107842608-3.0478174884815964E-5i
0.9641857194123948        -1.149063052439335       10.000032189737164-3.420157114447452E-5i
-0.15006843148768673      1.708317831692693        11.148466165254488-3.0081233839202886E-5i
0                         1.5                      10.0000321897372-3.430593757389512E-5i
1.2086818805238357        -1.209423413405714       9.238724335250007-3.066730242303476E-5i
1.1490229531109146        -0.9642335055494975      10.000032189737153-3.420890901165072E-5i
0.1502129325193976        1.7084787659481564       11.14934288046981-3.0078010056515607E-5i
0.2604733176110247        1.4772114441787627       10.00003218973717-3.43050160598944E-5i
1.401049533233359         -0.9821557226000792      9.39013505969105-3.0842602740193836E-5i
1.2990309378135554        -0.7500124149660692      10.000032189737137-3.421736674180118E-5i
0.44553474415256367       1.6556002568533537       11.105593173109874-3.0162371593766916E-5i
0.5130308300018143        1.4095387073321717       10.00003218973717-3.430229683005364E-5i
1.5542025803939876        -0.7245880689361576      9.551133139188378-3.095545465666752E-5i
1.4095354215180553        -0.5130398575996976      10.000032189737134-3.422667487547704E-5i
0.7246777166311112        1.5505870701088695       11.013677539765746-3.0348681289611587E-5i
0.7500003944253057        1.2990378779550218       10.000032189737158-3.429786835632532E-5i
1.6530999733090226        -0.4429791694650938      9.732608942755734-3.11260088468617E-5i
1.4772106593504082        -0.26047776853607507     10.000032189737102-3.423655594855742E-5i
0.982622498612517         1.4014767171672964       10.903545276460193-3.0521097066197055E-5i
0.9641816539097096        1.149066463814838        10.000032189737144-3.4291883479890314E-5i
1.2124175392424283        1.209081225467874        10.768116201586336-3.0701527511617364E-5i
1.149066861522912         0.964181179939686        10.00003218973712-3.4284543573752225E-5i
1.7062907179271811        -0.1502426703760007      9.909439898103003-3.117441554514836E-5i
1.5                       0                        10.000032189737095-3.424672749305144E-5i
1.7042244502685173        0.1495444210497112       10.08950331659049-3.1211673061020386E-5i
1.4772116647960043        0.2604720664305813       10.000032189737075-3.425689878631448E-5i
1.4022216739196285        0.9789000293039779       10.605671592481094-3.0915166063003305E-5i
1.2990382497578632        0.7499997504439765       10.000032189737084-3.427608755019099E-5i
1.5486976698882025        0.7210191644266362       10.43567287238814-3.109034406755016E-5i
1.409539002854417         0.5130300180614935       10.000032189737075-3.426677964863315E-5i
1.6515122033572722        0.44256218673752645      10.265530331131805-3.117432947609411E-5i
-0.9965377364775745       -0.5119901962187896      10.00003218973742-3.422380018947543E-5i
-1.2008663059005218       -0.49791577134374276     10.000032189737261-3.4224476500990015E-5i
-1.0807815042536755       -0.722434315397021       10.000032189737274-3.421438604556405E-5i
-1.2748903559257052       -0.2542726496649377      10.000032189737263-3.423538006809844E-5i
-1.0319755508591002       -0.2986993336941238      10.000032189737452-3.4233359423172806E-5i
-1.127842537973944        -0.10191755939636227     10.000032189737409-3.4242170403774785E-5i
-1.3                      0                        10.000032189737253-3.424672661295967E-5i
-0.9192376674108731       -0.9192399636727167      10.000032189737269-3.4205492333780815E-5i
-0.8319228040530704       -0.666498582512621       10.00003218973746-3.421683099495213E-5i
-0.7189976595822637       -0.8618054782722095      10.000032189737427-3.420802135600712E-5i
-0.7224316832899383       -1.080783263646725       10.000032189737269-3.4198149317383145E-5i
-1.0664996676627645       0.10472812591542703      10.000032189737459-3.425141139001255E-5i
-1.2748902800748012       0.25427302997131845      10.00003218973728-3.4258073188308295E-5i
-1.062896677181684        0.3387977857500095       10.000032189737432-3.4261884431650146E-5i
-1.2008674665427264       0.49791297211385643      10.000032189737288-3.426897664864794E-5i
-0.49791297211385643      -1.2008674665427264      10.000032189737265-3.41926616960539E-5i
-0.510399172809512        -0.9339474656970057      10.000032189737462-3.4204724379376665E-5i
-0.3309785191594261       -1.0518819784006919      10.00003218973743-3.419937200346798E-5i
-0.25427302997131845      -1.2748902800748012      10.000032189737269-3.41892651463359E-5i
0                         -1.3                     10.000032189737247-3.418810782911205E-5i
-0.10538155234965872      -1.0659210831003534      10.000032189737446-3.4198716977611376E-5i
-1.080783263646725        0.7224316832899383       10.000032189737283-3.427906717104161E-5i
-0.9395818995731745       0.5163281894979804       10.00003218973746-3.426985954066072E-5i
-0.8531621289884193       0.7147457534798374       10.00003218973743-3.4278784725426633E-5i
-0.9192399636727167       0.9192376674108731       10.000032189737276-3.4287960976778925E-5i
0.09303996630995835       -1.109229376845453       10.0000321897374-3.419675891495393E-5i
0.2542726496649377        -1.2748903559257052      10.000032189737215-3.4189265295035676E-5i
-0.722434315397021        1.0807815042536755       10.000032189737267-3.4295304117751574E-5i
-0.6753386092608932       0.8357571304674056       10.000032189737455-3.428427009220753E-5i
0.49791577134374276       -1.2008663059005218      10.000032189737182-3.419266207271347E-5i
0.30441895262960145       -1.0265167154650547      10.000032189737416-3.4200514289562554E-5i
-0.5126260877670702       0.9848384949288346       10.000032189737421-3.429102408561181E-5i
-0.49791577134374276      1.2008663059005218       10.000032189737249-3.430079188151051E-5i
0.5084580515760682        -0.9864169887835698      10.000032189737363-3.42023577998227E-5i
0.722434315397021         -1.0807815042536755      10.000032189737171-3.419814987729684E-5i
-0.2542726496649377       1.2748903559257052       10.00003218973723-3.430418863558685E-5i
-0.3053391794608046       1.0335196511967168       10.000032189737432-3.429325580755229E-5i
0.9192399636727167        -0.9192376674108731      10.00003218973716-3.420549305919816E-5i
0.6368844629499694        -0.8395735824827906      10.000032189737398-3.420900344528882E-5i
-0.10393032726764048      1.1209472354201107       10.000032189737377-3.429722431879921E-5i
0                         1.3                      10.00003218973719-3.430534609981627E-5i
1.080783263646725         -0.7224316832899383      10.00003218973714-3.4214386901339954E-5i
0.8095056677279252        -0.6838518544522508      10.000032189737384-3.421604683898319E-5i
0.2542774865505297        1.274889391215389        10.000032189737167-3.430418872450368E-5i
0.10931980786731789       1.064593217881322        10.000032189737395-3.429467675714187E-5i
1.2008674665427264        -0.49791297211385643     10.00003218973713-3.422447745002361E-5i
0.9467820609760702        -0.5052548130729154      10.00003218973736-3.4224092487790826E-5i
0.3316141418675122        1.0762888869531588       10.000032189737333-3.429518435172634E-5i
0.4979217638008312        1.2008638212276481       10.000032189737155-3.430079202388556E-5i
0.7224441620852138        1.0807749222983452       10.00003218973716-3.429530420809578E-5i
0.506476331786558         0.9410708427980866       10.000032189737368-3.4289051506477E-5i
1.0596055206129462        -0.3394856756542466      10.000032189737308-3.42315383407324E-5i
1.2748902800748012        -0.25427302997131845     10.000032189737103-3.4235380919445245E-5i
0.7153895190447785        0.8566739894903068       10.00003218973731-3.428520248365545E-5i
0.9192416125180489        0.9192360185584644       10.000032189737137-3.4287961431642373E-5i
1.0807768060422045        0.7224413440004743       10.000032189737096-3.4279068261004334E-5i
0.8313272910502476        0.6678774959315521       10.000032189737324-3.427668506720171E-5i
0.9847230645340913        0.5050330166939598       10.00003218973728-3.426934449140081E-5i
1.2008648344332253        0.4979193201932035       10.000032189737071-3.426897769494462E-5i
1.3                       0                        10.00003218973708-3.424672748412745E-5i
1.0610299183128573        -0.12096244923492275     10.000032189737324-3.4241316164151615E-5i
1.1000394500664892        0.08964047751280829      10.000032189737276-3.4250735912278726E-5i
1.2748898793617054        0.2542750390838555       10.000032189737073-3.425807411233908E-5i
1.0224128903168839        0.29599006887008583      10.00003218973731-3.425997457648779E-5i
-7.616736377532125        -4.607826820330119       5.491060637695362-6.663112953333243E-6i
-8                        -4.411764705882353       5.571980139739292-6.737105300191868E-6i
-8                        -5                       5.489105799328893-6.660888375017193E-6i
-7.409780872709702        -5                       5.4049241363025855-6.582405883408392E-6i
-4.204366953834539        -4.046139260378091       1.3312055515811483-1.898901478772207E-6i
-4.232237279915185        -4.1589911201886105      1.4262309162482756-1.994565203028043E-6i
-4.120345401946956        -4.121479299950651       0.9702916503138345-1.3667876839806427E-6i
-4.108864207601654        -4.272742039557807       1.0982288156094124-1.516522304650294E-6i
-4.029407492651005        -4.167878535113899       0.6908101354264503-9.625318688215168E-7i
-3.985288701048193        -4.240945246135913       0.719422146944337-9.929620594631229E-7i
-3.97050777952416         -4.346238309204156       0.8526039003323244-1.1684148324839679E-6i
-3.885124863444233        -4.26364124779026        0.5658051389336266-7.767944478240147E-7i
-3.857295901216056        -4.371250633139662       0.6867006605351247-9.381146013410863E-7i
-4.109818010135056        -4.00125778754426        0.8828901089779194-1.281333975277926E-6i
-4.2079785223633985       -3.9409470314037005      1.463288711923237-2.1329614669970763E-6i
-4.282547732630158        -3.9945463940077484      1.6882945863337404-2.4161951545036228E-6i
-4.295226155595897        -4.072975911866771       1.6702278564143387-2.3582393750823243E-6i
-4.238152868086963        -4.442894222850899       1.5413332655753191-2.100174116831854E-6i
-4.327663335341751        -4.29376222177309        1.7340134790551502-2.3834012189611536E-6i
-4.45660895849616         -4.480075252290495       2.0523787672308376-2.7753239831386057E-6i
-4.350610009399203        -4.148895078267138       1.8187582897316148-2.5344276781629667E-6i
-4.319807005710448        -3.902143691804157       1.9461881069079923-2.816582327923202E-6i
-4.217453584604731        -3.8471990317750118      1.6949538469865317-2.5149004264358725E-6i
-4.119864337316433        -3.896130124955415       1.1614189224985436-1.736664217180667E-6i
-4.137894585526493        -3.807833980176441       1.5134108214784083-2.300412478071213E-6i
-7.5665795113541865       -4.12492360225306        5.628871643448895-6.7913406773270425E-6i
-8                        -3.823529411764707       5.816036628085333-6.9550930909076405E-6i
-7.106784588513753        -4.4971487373771755      5.359649362185793-6.543372468921598E-6i
-6.819561745419405        -5                       5.147523717477215-6.335532710529363E-6i
-4.92831069414149         -4.721544073408758       2.9657280313749053-3.9102198762025035E-6i
-5.091676632715828        -5                       3.2265550040495357-4.217996350492753E-6i
-4.755000817225451        -5                       2.6263824465432695-3.477058228333838E-6i
-4.578969703948168        -4.74532683962864        2.2974869629630805-3.0671307987150724E-6i
-4.7529778622236325       -4.454080175041934       2.6952554782818976-3.605989493518436E-6i
-5.4376934553489455       -5                       3.768568021921814-4.8588005339772195E-6i
-5.274718954393459        -4.700674460073382       3.554741055378243-4.620639609740462E-6i
-6.513020623486308        -4.571184349940596       4.993396705416303-6.190583553352734E-6i
-6.267356903828639        -5                       4.737260025033578-5.922150419237434E-6i
-6.034647045827427        -4.624451174788158       4.555387203947162-5.741490264408535E-6i
-5.80700941501795         -5                       4.255854107524112-5.40801766182997E-6i
-5.658180276293446        -4.670411326054771       4.1079297144477644-5.254880442380535E-6i
-3.756133859145398        -4.309217615129297       0.4711688277843585-6.435547787931998E-7i
-4.068196984942857        -4.481597730750499       1.1848223131177065-1.6137261942974136E-6i
-3.908004727408345        -4.454644956996296       0.861686721546515-1.1744516309716258E-6i
-4.22943085405239         -4.686293869882605       1.595088062482933-2.152237074427705E-6i
-4.4185160951638345       -5                       1.9843355736319355-2.6547493252208544E-6i
-3.7668377635155936       -4.48300657672766        0.6825116365096084-9.2855974757095E-7i
-4                        -4.05                    0
-3.9325391620199124       -4.154226099013447       0.39591295823949796-5.481454223935264E-7i
-3.8102938906643686       -4.16627911208888        0.27474006856265926-3.7724392320855063E-7i
-3.6812277065437056       -4.186203934781858       0.2251809550463131-3.076806079815018E-7i
-4                        -3.95                    0
-4.4063688022003955       -4.016307706492266       2.0797955809448556-2.934676638100076E-6i
-4.525468127196828        -4.204585424820463       2.2810235817847366-3.131557100639136E-6i
-4.453366715566146        -3.8408491572031753      2.439965974683347-3.501838230428451E-6i
-4.324045499028217        -3.7729569287948816      2.2020908626707487-3.2485867058263684E-6i
-4.206889101127566        -3.7391155717274605      1.9399276943342618-2.9400911247345343E-6i
-4.045760997469033        -3.8258607783064953      1.1127144858102496-1.7279025343814129E-6i
-4.099504907114701        -3.730864394117824       1.650729530280706-2.5696087032207582E-6i
-7.5548084802909425       -3.5454445628799376      5.943934443837192-7.072844774755415E-6i
-8                        -3.2352941176470598      6.208225350779795-7.284552204190769E-6i
-7.121457793946           -3.8666794108081657      5.624182567202593-6.80253340566224E-6i
-6.657831842239151        -4.056351832345196       5.288354134062417-6.501298714720675E-6i
-4.912974695321743        -4.165043877339602       3.1582323278826347-4.242978520132196E-6i
-5.110978435296306        -4.403718730373547       3.3833682110028014-4.4551496970038134E-6i
-5.42147423256474         -4.408372630603214       3.869875571798798-5.016278971962359E-6i
-6.1738410036396685       -4.170459209989412       4.860463275425253-6.091440484513258E-6i
-5.7492650523185835       -4.254161974153763       4.374498346137699-5.589467999242665E-6i
-7.538635322904318        -2.9625939235638135      6.3987452140831484-7.449974628050827E-6i
-8                        -2.647058823529412       6.728552101559154-7.679556965964965E-6i
-3.608444442043704        -4.358512768131186       0.39642152693790683-5.396992449384001E-7i
-3.5422673998600835       -4.183214113341788       0.16195192835959385-2.2065444090660053E-7i
-3.465218255800754        -4.283258928436856       0.2354613012299483-3.202992477207927E-7i
-3.4065378856295077       -4.171309019634796       0.1130161938461478-1.537288916338718E-7i
-3.352725301924776        -4.2830140919057085      0.1908352970375532-2.5935859893860537E-7i
-3.897255686247546        -4.667940258309948       0.9961778875897859-1.3500049604876112E-6i
-4.082031373102218        -5                       1.3684523139204956-1.8440718825942386E-6i
-3.6499384048155927       -4.609192168026915       0.6399641272186792-8.685261748492246E-7i
-3.2665205064378746       -4.181859442486207       0.09462222928565966-1.2856738928013653E-7i
-3.8872480222625168       -4.05                    0
-3.75460744771528         -4.05                    0
-3.6156191998333984       -4.05                    0
-3.888910435146046        -3.95                    0
-3.9347890959549834       -3.83382235683774        0.7524447147956893-1.2158768036026784E-6i
-4.6513419994270855       -3.939940755737006       2.8032684734619857-3.899334234101418E-6i
-4.915203666065387        -3.87876193130393        3.4117267286739787-4.652553998946512E-6i
-4.574145867262853        -3.7405414405168154      2.892891174852767-4.13291529415282E-6i
-4.4444911197678705       -3.673204419873927       2.71341502599361-3.976099963251858E-6i
-4.303188851119221        -3.6347125991897093      2.461437947036254-3.7134392084090833E-6i
-4.17323180186353         -3.621331775826774       2.1868417143541135-3.397101237112058E-6i
-3.99240425378645         -3.7216181928484438      1.4071323819059474-2.2631390601345556E-6i
-4.0601186564076          -3.6187048088623017      1.939355487119822-3.1004600632331758E-6i
-3.4765569229167266       -4.05                    0
-3.3374946460000547       -4.05                    0
-7.086153811777265        -3.2493717768787413      6.0405107854434705-7.192074244593988E-6i
-6.638834239457259        -3.5056971850022363      5.632946008263411-6.867780440854171E-6i
-6.295722963256035        -3.7776360818640478      5.201627515361493-6.4688950666937815E-6i
-5.30568019618243         -3.9953118945581614      3.950124502015853-5.200579104469677E-6i
-5.853243649416514        -3.7858630259618087      4.797060142529916-6.111588944325764E-6i
-7.5333758044840575       -2.3692953652626034      6.983028093279279-7.87835014062455E-6i
-8                        -2.0588235294117663      7.352849201897193-8.085672001895896E-6i
-7.06320603111765         -2.665335981848095       6.577434684929361-7.65039362007325E-6i
-3.398537802263006        -4.455000210638623       0.33419721876213726-4.5388286878185213E-7i
-3.230162973732783        -4.3367266444156085      0.185291382872768-2.516165703001643E-7i
-3.742224213565717        -5                       0.8616860605468586-1.1657688787151149E-6i
-3.4503615808955876       -4.7378307419927435      0.5097801236101133-6.911765782930505E-7i
-2.9127498766644577       -4.267347377229237       0.0829737576744055-1.1259619206840704E-7i
-3.0438610813146596       -4.322322261578712       0.12812993264536673-1.7390469715413825E-7i
-2.8893563602358023       -4.4115198769103525      0.12723370675957427-1.7262801309824867E-7i
-2.790522709033661        -4.2836183426725265      0.07233195694724474-9.813883160442843E-8i
-3.1287192658909877       -4.197483526317109       0.08266133020128441-1.122405105663987E-7i
-2.992623192286904        -4.173432063960485       0.054875733567714524-7.44839523554881E-8i
-3.198432369083383        -4.05                    0
-3.7584272056580588       -3.95                    0
-3.811500133668589        -3.833950633814694       0.5882902133452789-9.979399264896877E-7i
-3.875896405142233        -3.7138581191787896      1.2196591665327008-2.040253139015347E-6i
-5.057025297021474        -3.59959925046394        3.9761547526291108-5.42196123526645E-6i
-4.792982563088253        -3.6912625303489035      3.4115148375400675-4.765100961665338E-6i
-4.587338854052652        -3.5695346544339395      3.2095971565746892-4.647958143160527E-6i
-4.413472459170227        -3.5134542662779253      2.9771098720574627-4.458636069752123E-6i
-4.25700312575792         -3.488212632637285       2.727893117038379-4.22393540191892E-6i
-4.119385024412891        -3.4995514434805965      2.43264344640253-3.882942118767959E-6i
-3.9383915052152725       -3.6064430940855985      1.7486362831988533-2.89852335495967E-6i
-4.012641547488031        -3.5193914117542984      2.1783184359543646-3.566773293548802E-6i
-6.599981822461516        -2.950479019750306       6.110734122847462-7.350880780249384E-6i
-6.1097733068813245       -3.270687247803257       5.489933266581927-6.8603612679862434E-6i
-5.471124943908193        -3.400113229443577       4.758845465737024-6.2616188618761675E-6i
-5.066603744978516        -3.2512216837184784      4.471601694352672-6.169023653444255E-6i
-7.523540321846226        -1.7741927149497243      7.662953427797558-8.29249256167338E-6i
-8                        -1.4705882352941193      8.055678521256857-8.448049505868834E-6i
-7.055593332758077        -2.0690497579474827      7.239935175366919-8.136902797880446E-6i
-6.585776144922518        -2.3606803217328474      6.757027529471878-7.932313817553828E-6i
-2.716197677974097        -4.416540628075763       0.09638866702146238-1.3076035114840665E-7i
-2.6726524749444054       -4.272457814102248       0.056679921273829106-7.689513027641791E-8i
-3.131144552644642        -4.605729213160933       0.2672178640378194-3.625090681520383E-7i
-2.8247645827232963       -4.598184407874841       0.15910620607968404-2.1582049692939323E-7i
-3.348227662100417        -5                       0.4701683182006933-6.372366966071429E-7i
-2.5451894864273035       -4.342946909110642       0.05930515258523061-8.044912300351663E-8i
-2.854232986830695        -4.163142532512611       0.03980904441319815-5.4019850311883614E-8i
-2.720426087093764        -4.165834205699493       0.032529631884200515-4.413476410324022E-8i
-2.580158628805175        -4.180196040079949       0.028865308447961615-3.915889865770215E-8i
-3.059370092166711        -4.05                    0
-2.9203078152500392       -4.05                    0
-3.6193680185721444       -3.95                    0
-3.6857662585195987       -3.829396027487534       0.5312304013428745-9.433317865692097E-7i
-3.4801615563193646       -3.95                    0
-3.552146322147809        -3.8272552947004543      0.49242531824851765-9.148177181375269E-7i
-3.340955094066585        -3.95                    0
-3.412272048617581        -3.8256139593789644      0.46737912123418424-9.077935375171803E-7i
-3.752698769409911        -3.7041181868008413      1.111161849015932-1.939140940078475E-6i
-3.8256482816876507       -3.58288546480975        1.6704829336697615-2.871705040771713E-6i
-4.777665359924438        -3.3639686034882503      3.8936102052756394-5.560305358213882E-6i
-4.52087772024688         -3.3808425275505996      3.4508267672596964-5.1275255976952294E-6i
-4.35646316874133         -3.3183638266996858      3.316319865771316-5.106325922960892E-6i
-4.181530203517027        -3.342078931990028       2.9787448827947856-4.753822004566791E-6i
-4.029505616406678        -3.395676182399115       2.592073538588426-4.273440453041864E-6i
-3.9145150673895244       -3.473201853594428       2.1779577941422748-3.679652219546667E-6i
-3.2017486318138046       -3.95                    0
-3.2721477082564814       -3.8222607446154413      0.4585220839985344-9.290365105142101E-7i
-3.0625421695610253       -3.95                    0
-3.134641611345391        -3.8219824437408025      0.44504332528035473-9.380267213702051E-7i
-7.523275333392846        -1.1812196355808449      8.408790942761899-8.632240665213894E-6i
-8                        -0.8823529411764723      8.812533816730177-8.719022593211472E-6i
-6.116147400613081        -2.651101605236658       6.186826004790778-7.618225094627448E-6i
-5.6326628007176724       -2.880646353611388       5.56373262355043-7.209728405434973E-6i
-5.272885612159417        -3.0174631499880014      5.048100941597933-6.8172580534060194E-6i
-4.789915025913362        -3.061065657103048       4.441626154861118-6.416950764194243E-6i
-5.000662879212749        -2.950737736873445       4.869808297591754-6.830170243984124E-6i
-7.048448581254929        -1.4765305784824543      7.978097001846366-8.569058268986855E-6i
-6.579718619509088        -1.7679667838400894      7.502414472137864-8.49170337435023E-6i
-6.110225431286612        -2.0540532229258024      6.96211198087956-8.3569355354304E-6i
-2.523772925846976        -4.6358845118442495      0.10099526751642672-1.369884643138179E-7i
-2.3611653586402697       -4.384970982365317       0.04936772348095434-6.696455438382062E-8i
-2.2579612081063107       -4.54022600477923        0.0573263168443978-7.77569524792691E-8i
-2.098737376138617        -4.418579221845025       0.03476706659792696-4.715787823983895E-8i
-2.2203437596679403       -4.340116734434202       0.034305123021003-4.653220579113585E-8i
-2.8640176231357355       -5                       0.21405422448249217-2.9029306619764576E-7i
-2.0936843231338793       -4.291683462984208       0.023454353694467515-3.18136394491274E-8i
-1.9612500010803307       -4.3323652860805675      0.021802797198966644-2.957308844359481E-8i
-1.639327486465272        -4.368508299976792       0.014341961056825428-1.945304561124237E-8i
-1.667774737206721        -4.27410015286507        0.010823875451294677-1.4681240798387863E-8i
-1.7813374634475905       -4.362469566394724       0.017790046652130413-2.4130020708022656E-8i
-2.4446821118315762       -4.212194372934808       0.028574328583947758-3.876149835649937E-8i
-2.297436230018073        -4.204796219707661       0.021385158580693817-2.9008061874629794E-8i
-2.1663536387278572       -4.190458385507158       0.015647549111889144-2.122474530744003E-8i
-2.7812455383333674       -4.05                    0
-2.6421832614166956       -4.05                    0
-2.5031209845000237       -4.05                    0
-2.9233357073082455       -3.95                    0
-2.993847156355031        -3.823669715211809       0.429004520134701-9.3971006671493E-7i
-3.6248901766902133       -3.7021669346317725      1.0201671440645548-1.857143735280027E-6i