% Model:              VLR_3_01V03.mph
% Version:            COMSOL 5.5.0.292
% Date:               Jun 28 2020, 19:08
% Dimension:          2
% Nodes:              2111
% Expressions:        1
% Description:        Electric potential
% Length unit:        cm
% x                       y                        V2 (V)
-1.8004163664931148       -0.8709195756576668      9.99994946695614+9.581051625657711E-4i
-1.9485514861871704       -0.45071843281340146     9.99994946695624+9.580987812431124E-4i
-2.2711286695848423       -0.8747719564847298      9.234299985495637+8.040083567942108E-4i
-2.046467396884983        -1.2391267478904204      8.956013483860474+8.051787023707694E-4i
-1.5629278532010311       -1.2479008476992133      9.999949466956027+9.581109857368014E-4i
-2                        0                        9.999949466956275+9.580919998781497E-4i
-2.3705470026855395       -0.09558455886780351     9.92705908835835+8.337971177019525E-4i
-1.7540388034517085       -1.620815045469213       8.57971190880775+7.886743271372031E-4i
-1.247879584141205        -1.5629448305949811      9.999949466955917+9.5811595228358E-4i
-1.9485527389473938       0.4507130168306763       9.999949466956272+9.580852185467908E-4i
-2.33297255542183         0.38234571399431383      10.285495416163394+8.345138142228844E-4i
-1.3951558306765957       -2.0178237363528684      7.916670179972378+7.376095318227487E-4i
-0.8708951995146321       -1.8004281578175703      9.999949466955806+9.581197719784585E-4i
-1.8004281578175703       0.8708951995146321       9.999949466956217+9.580788376513638E-4i
-2.240130279164952        0.841015944271162        10.68298296746375+8.176730202438324E-4i
-0.893437829419731        -2.257333045853055       7.676373567172404+7.258626526198618E-4i
-0.4507130168306763       -1.9485527389473938      9.999949466955751+9.581221873643271E-4i
-1.5629448305949811       1.247879584141205        9.999949466956101+9.580730138930984E-4i
-2.00524718450843         1.319914428567236        11.13928691837166+7.990850337355233E-4i
-0.4282419230988671       -2.3386294602542383      7.7631788105198405+7.39016910763054E-4i
0                         -2                       9.999949466955716+9.581230350096836E-4i
-1.2479008476992133       1.5629278532010311       9.999949466956+9.58068046481075E-4i
-1.6676695755948459       1.7372967469605785       11.602603517884974+7.745632185154647E-4i
0.45071843281340146       -1.9485514861871704      9.999949466955705+9.581221875252648E-4i
0.28534007359281305       -2.3873242791641744      7.58536098262737+7.223716809633506E-4i
-0.8709195756576668       1.8004163664931148       9.999949466955893+9.580642288343189E-4i
-1.2305046342610673       2.0642248333756195       11.979423381123466+7.529901289187232E-4i
0.7635123449486695        -2.3433859874822907      7.415082701714753+7.020979309889949E-4i
0.8709195756576668        -1.8004163664931148      9.999949466955753+9.581197685919699E-4i
-0.45071843281340146      1.9485514861871704       9.999949466955801+9.58061811966244E-4i
-0.7376699922968597       2.3322637018127557       12.499481325403195+7.107071549359271E-4i
1.2385621748245428        -2.0546966244780984      8.046279843620944+7.553931760041086E-4i
1.2479008476992133        -1.5629278532010311      9.999949466955805+9.581159517176643E-4i
0                         2                        9.999949466955746+9.580609637402281E-4i
-0.2959654692995729       2.388345716473931        12.42533247264542+7.212408719965551E-4i
1.6674841773580165        -1.7295343708036461      8.422136758412266+7.771699206489815E-4i
1.5629448305949811        -1.247879584141205       9.99994946695586+9.581109853818464E-4i
0.4507130168306763        1.9485527389473938       9.999949466955732+9.580618114728127E-4i
0.42117855404595383       2.324765079898339        12.155185388937099+7.469559470887163E-4i
1.9993864451159522        -1.3176762702809124      8.875416812392517+8.01262072730977E-4i
1.8004281578175703        -0.8708951995146321      9.99994946695592+9.581051617815859E-4i
0.8708951995146321        1.8004281578175703       9.99994946695577+9.580642278853262E-4i
0.8985273450707841        2.2152267379033317       12.126186672967377+7.45154011183323E-4i
2.2151733266410645        -0.855107611891562       9.329200194930708+8.231394335681887E-4i
1.9485527389473938        -0.4507130168306763      9.999949466955968+9.580987809975548E-4i
1.247879584141205         1.5629448305949811       9.99994946695583+9.580680461952671E-4i
1.339822782926624         1.940968460011082        11.679018687961316+7.800997861282579E-4i
2.3908065775282594        -0.3640509406418806      9.698161596388017+8.182699029997228E-4i
2                         0                        9.999949466956005+9.580919995053512E-4i
2.3735711161863025        0.10144736239575819      10.077579527708911+8.327761655850823E-4i
1.9485514861871704        0.45071843281340146      9.999949466956+9.580852182989078E-4i
1.5629278532010311        1.2479008476992133       9.9999494669559+9.580730132907768E-4i
1.7289395692808445        1.6296898940563207       11.396328781199186+7.92633356009801E-4i
1.8004163664931148        0.8709195756576668       9.999949466955963+9.580788371242203E-4i
2.0363538861084662        1.2485134451666122       11.045441766846821+8.060480607425326E-4i
2.2758202281424547        0.8662661130550481       10.759293214470972+8.038119185302589E-4i
-1.0876451913682574       -0.11793590440138024     9.999949466956535+9.580945286870293E-4i
-1.3                      0                        9.999949466956476+9.580919995846423E-4i
-1.2650809307878883       -0.2992828738114655      9.999949466956435+9.580983959264914E-4i
-1.168571833791987        -0.5695962335444581      9.999949466956352+9.581042054835511E-4i
-0.989603663393737        -0.3435609994442198      9.999949466956506+9.580993802236593E-4i
-0.9307564128036256       -0.5991460075685171      9.999949466956405+9.581048907014776E-4i
-1.0150967759289806       -0.8121444055699633      9.999949466956245+9.581094670949919E-4i
-0.7386774312652029       -0.7491504777426241      9.99994946695636+9.581081689452939E-4i
-0.8121419222731038       -1.0150987627253556      9.999949466956137+9.581139198539009E-4i
-0.5881370555038595       -0.9213755612432625      9.999949466956275+9.581119337379411E-4i
-0.5695934437318141       -1.1685731936244872      9.999949466956082+9.581173245007251E-4i
-1.044373158320511        0.1193762403380347       9.999949466956563+9.580894383235386E-4i
-1.26507856435646         0.2992928766372468       9.999949466956458+9.580856070851008E-4i
-1.0304807626801489       0.36395759685966567      9.99994946695652+9.580841865446173E-4i
-1.1685731936244872       0.5695934437318141       9.999949466956398+9.580797981043853E-4i
-0.2992928766372468       -1.26507856435646        9.999949466956021+9.581194839370985E-4i
-0.37156366944114244      -0.9729829184296485      9.999949466956265+9.581130911669504E-4i
-0.8960468413288223       0.5457288381345544       9.9999494669565+9.580802543324652E-4i
-1.0150987627253556       0.8121419222731038       9.99994946695631+9.580745354093954E-4i
-0.1423119460726423       -1.0727476423268594      9.99994946695619+9.581152878524107E-4i
0                         -1.3                     9.999949466955965+9.581202651954217E-4i
-0.7768452529697469       0.7601671044561591       9.999949466956425+9.58075599913894E-4i
-0.8121444055699633       1.0150967759289806       9.99994946695624+9.580700810213506E-4i
0.11565669798483136       -1.0359696403546224      9.999949466956195+9.581144860517709E-4i
0.2992828738114655        -1.2650809307878883      9.99994946695595+9.581194836850712E-4i
-0.5698113726457039       0.8596036791670819       9.999949466956394+9.580734046636352E-4i
-0.5695962335444581       1.168571833791987        9.999949466956174+9.580666755989782E-4i
0.34840984564260485       -1.028976271861215       9.999949466956162+9.581143144173802E-4i
0.5695962335444581        -1.168571833791987       9.999949466955972+9.581173232985083E-4i
-0.3608903885211499       1.0052254502866163       9.99994946695631+9.580702045959838E-4i
-0.2992828738114655       1.2650809307878883       9.99994946695611+9.580645130964571E-4i
0.8121444055699633        -1.0150967759289806      9.999949466956016+9.581139170254754E-4i
0.5145084520809705        -0.8944213621140242      9.999949466956211+9.58111360494229E-4i
0                         1.3                      9.999949466956059+9.58063731763183E-4i
-0.11316675792328162      1.0180814687334507       9.999949466956288+9.580699032966665E-4i
0.13100753337202814       1.070911472288787        9.999949466956235+9.580687508474056E-4i
0.2992928766372468        1.26507856435646         9.999949466956052+9.580645160782315E-4i
1.0150987627253556        -0.8121419222731038      9.999949466956062+9.581094640187059E-4i
0.7238892428203658        -0.7444862387406049      9.99994946695624+9.581080704597623E-4i
0.8876125322425666        -0.5579609863782428      9.999949466956265+9.581040102332534E-4i
1.1685731936244872        -0.5695934437318141      9.999949466956101+9.581042016999315E-4i
0.5695934437318141        1.1685731936244872       9.999949466956064+9.580666752120273E-4i
0.3534441297932606        0.9736174243827747       9.999949466956258+9.580708921501915E-4i
0.585271853213704         0.9248442575284146       9.99994946695623+9.580719896195491E-4i
0.8121419222731038        1.0150987627253556       9.999949466956089+9.580700793388341E-4i
1.0327145670548172        -0.37565673979146263     9.999949466956258+9.581000637993862E-4i
1.26507856435646          -0.2992928766372468      9.999949466956148+9.580983920334519E-4i
1.3                       0                        9.99994946695619+9.58091999651338E-4i
1.041664971457573         -0.15600911607726295     9.99994946695631+9.580953471976264E-4i
0.7275690370453636        0.7293005722378524       9.999949466956293+9.580762579860443E-4i
1.0150967759289806        0.8121444055699633       9.999949466956114+9.580745321170068E-4i
0.914543692196985         0.5622574395424031       9.999949466956295+9.580799007233905E-4i
1.168571833791987         0.5695962335444581       9.999949466956162+9.580797936972659E-4i
1.0707544063096703        0.08521632604171768      9.999949466956323+9.580901716794391E-4i
1.2650809307878883        0.2992828738114655       9.999949466956219+9.580856035765777E-4i
0.9733004215806192        0.3267288888087006       9.999949466956343+9.58084979008929E-4i
-7.616974783298779        -4.60620431792052        5.553368848594075+2.3632625425089822E-4i
-8                        -4.411764705882353       5.633704172078894+2.3893208084270845E-4i
-8                        -5                       5.551052625856788+2.3623597813311132E-4i
-7.409780872709702        -5                       5.467058449090665+2.3345973138382152E-4i
-4.755000817225451        -5                       2.671324000047335+1.2343216753791063E-4i
-4.916668434262036        -4.707391751486714       2.996656075721514+1.3802412824679997E-4i
-5.091676632715828        -5                       3.278728785960226+1.49711932121701E-4i
-4.590167088050777        -4.734790784160499       2.3613569598632673+1.0995168856543039E-4i
-4.278421254673375        -3.997051890421917       1.7097856668394757+8.495168170840652E-5i
-4.207511638683512        -4.050927760460156       1.3737319524874285+6.79780530930225E-5i
-4.208111535673931        -3.9445570886893635      1.4949402000242218+7.549573732073361E-5i
-4.291802216375679        -4.083011431783149       1.6895633954657256+8.280544968419703E-5i
-4.235202489235776        -4.1615800648056975      1.468157753570978+7.13728097286137E-5i
-4.240118969842217        -4.434515927590005       1.5732591171934056+7.47127663956109E-5i
-4.113100476556932        -4.273962064162473       1.134456968979065+5.452111080637572E-5i
-4.330223355053553        -4.294105385633051       1.7760621095010996+8.498712042463457E-5i
-4.446514610937091        -4.465551015265819       2.0684798995005207+9.759018620515377E-5i
-4.360634314232885        -4.153738394253776       1.8869285784654015+9.137309292692057E-5i
-4.123201787867481        -4.117912453772706       1.0007128053854475+4.902593067534489E-5i
-4.028414930538705        -4.159777088971774       0.6835211520569331+3.315829373666618E-5i
-3.9794290048682854       -4.240397160616326       0.7191561903846468+3.454273519401657E-5i
-3.9593277040095174       -4.36198479313449        0.8674445417151854+4.135783465771062E-5i
-3.8691724727728403       -4.264627600789819       0.5538465885504816+2.646106308098383E-5i
-3.738444316269427        -4.2797266353993155      0.41890650898757736+1.9934378904996533E-5i
-3.8008794025787482       -4.404298224359815       0.6593546630266331+3.131987345469884E-5i
-4.077778861724629        -4.507675982924111       1.2450249951441583+5.9010811335311E-5i
-3.9119033384007103       -4.48836375896079        0.9168329380439075+4.348671007500321E-5i
-4.251099357414965        -4.680668869503852       1.6671624003652497+7.839622920289732E-5i
-4.4185160951638345       -5                       2.019981551704082+9.425790481283462E-5i
-4.109551955773516        -4.00181076352716        0.903229895696429+4.545521620030184E-5i
-4.321392052417856        -3.9021538065402512      1.9994746708926232+1.0036717472005099E-4i
-4.215697109603468        -3.849056329358543       1.7297789576120743+8.886072452888844E-5i
-4.118486772416171        -3.8974672782407285      1.1831094907704207+6.120796560576501E-5i
-4.136654062356509        -3.809997785491929       1.5464226260035023+8.121459348517839E-5i
-7.567718643075409        -4.122023044909125       5.69195234873531+2.4089723140694106E-4i
-8                        -3.823529411764707       5.876857406584333+2.4664188851065104E-4i
-6.819561745419405        -5                       5.209938740620623+2.2472407411505398E-4i
-7.106985223844052        -4.4866543466909645      5.424809945932744+2.3217859905425242E-4i
-6.51858567949672         -4.559131332717428       5.063251559680467+2.1986122018285848E-4i
-6.267356903828639        -5                       4.799292649366417+2.1009195926449187E-4i
-5.80700941501795         -5                       4.3161460860632905+1.9188517799840184E-4i
-6.039238101179623        -4.594562010244267       4.629615743837696+2.0421015776423418E-4i
-5.260430521208299        -4.675707047204165       3.593741233532807+1.6335762772514336E-4i
-5.4376934553489455       -5                       3.825740176033657+1.7242747284113705E-4i
-5.628184182771841        -4.634668620326741       4.13751441005297+1.8536003732474968E-4i
-4.734104669590977        -4.441422564585948       2.7085918453248787+1.265585965346742E-4i
-5.059511259718181        -4.391251578789235       3.355713686207769+1.5471264735613638E-4i
-4.41335692183073         -4.014324138417936       2.1497466841167903+1.0539241542346357E-4i
-4.534772317324397        -4.207029434232531       2.3490192940738495+1.1221762631191895E-4i
-4                        -4.05                    0
-3.9257504875340543       -4.150424428047238       0.3802099539874359+1.8312693133263686E-5i
-3.8109360360693603       -4.152241588763371       0.2495225806656827+1.1933516733485511E-5i
-3.6778367157128113       -4.154828186475979       0.17738992553401256+8.444071202307026E-6i
-3.60633087043107         -4.250804153969835       0.2777723904329198+1.3190601550275213E-5i
-3.543884451585743        -4.15598282149255        0.1327631843590942+6.302672092749073E-6i
-3.4132426993899916       -4.16495845469584        0.11074769549546692+5.2490262404593845E-6i
-3.48582490630043         -4.285310958907949       0.2517956916841792+1.1935887126712342E-5i
-3.3589236942556453       -4.276161749807004       0.19138616718004173+9.063574177885365E-6i
-3.6001797614268667       -4.425033880320453       0.46272521919521326+2.1927905958551002E-5i
-3.746454910135013        -4.544738284085542       0.7213100310706363+3.414729279499989E-5i
-3.9459577163674817       -4.732889752654277       1.1209931885316589+5.2866321376499995E-5i
-4.082031373102218        -5                       1.3940665732043127+6.549368422349765E-5i
-3.7439832476632247       -4.726162861537472       0.8246300821151394+3.8940463555426E-5i
-7.555334271713638        -3.542547050977438       6.006435023078759+2.5086892768315123E-4i
-8                        -3.2352941176470598      6.266828090698094+2.5828990823646377E-4i
-7.540867749704923        -2.9591681906146174      6.459800984511957+2.642282172119243E-4i
-8                        -2.647058823529412       6.782797691321636+2.722484126468855E-4i
-4.452033899469936        -3.838374428205703       2.4981217277401124+1.245162703915829E-4i
-4                        -3.95                    0
-4.320737784761674        -3.7769511722412976      2.2416426559643727+1.1455474217401575E-4i
-4.206674832605926        -3.742588367554699       1.9858109216498294+1.039819477512535E-4i
-4.044401397070695        -3.8273801123825715      1.1360997975493914+6.0855313032834726E-5i
-4.098010200086289        -3.733496839923104       1.6897513957795802+9.070719014163339E-5i
-7.1261351912601425       -3.8579450782348674      5.693126461361256+2.4146769795856075E-4i
-6.6732637574115055       -4.040346712891838       5.369697041938868+2.312109972082105E-4i
-6.206672885814892        -4.149512849015887       4.96475841813341+2.1756117591947862E-4i
-5.807609790444184        -4.224052020731709       4.5216672911456905+2.0157004071289872E-4i
-5.415310368579045        -4.312344250447348       3.967046242921249+1.800302408852426E-4i
-4.855522740085168        -4.141894909966788       3.118740354714539+1.4678841435776592E-4i
-5.175030824583557        -4.068748949044448       3.7537959885889447+1.7364602662528733E-4i
-4.665019262669993        -3.9165382702579383      2.9208195666147203+1.414476252167373E-4i
-4.559959100207761        -3.7335674631059135      2.93923483621475+1.4617194222432404E-4i
-3.2767715724900457       -4.172295324585691       0.09127830123898555+4.3217813589110655E-6i
-3.8872480222625168       -4.05                    0
-3.75460744771528         -4.05                    0
-3.6156191998333984       -4.05                    0
-3.4765569229167266       -4.05                    0
-3.3374946460000547       -4.05                    0
-3.392387960713262        -4.438924693162017       0.32638702175824+1.544689148881589E-5i
-3.224429162507218        -4.328964016055262       0.18235108001157999+8.628474243916985E-6i
-3.5199939746735978       -4.72227537296396        0.575627340548709+2.719812845308392E-5i
-3.742224213565717        -5                       0.87792588496076+4.139717279526398E-5i
-7.089877441928293        -3.2444993866727843      6.107048839914512+2.551814055207371E-4i
-7.529466430560748        -2.3669451904103274      7.037266129818768+2.793361042543549E-4i
-8                        -2.0588235294117663      7.399864528635739+2.8659043642656045E-4i
-7.068668842527051        -2.6633109993405393      6.639198482271367+2.712958198757315E-4i
-7.527346123364574        -1.7716608088510573      7.709728005390358+2.939385167510288E-4i
-8                        -1.4705882352941193      8.092266734615729+2.993795703599373E-4i
-4.431738274931598        -3.6867117186708804      2.724911709213431+1.3847005533065956E-4i
-4.53649516846002         -3.6020583735243354      3.1240097112221306+1.5766411025168903E-4i
-3.888910435146046        -3.95                    0
-3.9366702478776676       -3.836222723001268       0.7703487433720477+4.2735494997533403E-5i
-4.304536039495917        -3.640689124349146       2.51963552225801+1.3133651945022002E-4i
-4.177077072754126        -3.623101687127724       2.259557951204133+1.209608647245264E-4i
-3.993970224613096        -3.7225028627213503      1.4574620452320028+8.055122788964095E-5i
-4.058808407559756        -3.617313076987945       2.009037946528176+1.1056113560430559E-4i
-6.639388700947507        -3.498824187203067       5.703060866181033+2.4377361681021992E-4i
-6.308255692514199        -3.740620822528916       5.30352233485583+2.3082622180464852E-4i
-5.895064022363979        -3.7379321619056745      4.946134221504072+2.1994822717328816E-4i
-5.539084733352665        -3.9175370589216434      4.399402457786393+1.9959154552745765E-4i
-4.953185131381667        -3.8283457895477206      3.6017063255425263+1.710093951829501E-4i
-5.234045658019182        -3.7523034915515714      4.1362788150692795+1.9244332362021316E-4i
-4.741661835475959        -3.6297300781672046      3.47945851018099+1.7071108473388252E-4i
-2.917226997732466        -4.270299270074264       0.0863100088033247+4.081376858911306E-6i
-3.0471450688080637       -4.3177580586765645      0.12927124246146335+6.113972039582765E-6i
-2.8981870199161923       -4.4149381439731785      0.1326854275233729+6.273364770678396E-6i
-2.7946570264853867       -4.288735558273838       0.07576372117860608+3.5821046651782537E-6i
-3.1341998009088803       -4.1836615394325545      0.0772597551576115+3.6556054772607884E-6i
-2.994234457861651        -4.170161485555677       0.05462416573430501+2.583592079470284E-6i
-3.198432369083383        -4.05                    0
-2.7171865633388324       -4.417544777435134       0.09861561365759693+4.6619317278009635E-6i
-2.6760936092963457       -4.276969509165555       0.059216141655915065+2.7994888585673394E-6i
-2.55250901520796         -4.343219087005322       0.06123890503584437+2.894871130806393E-6i
-3.1272437607743426       -4.603073176389616       0.2697578824291365+1.2752547222636851E-5i
-2.8263207481807338       -4.580928378660921       0.15892664666499234+7.512463449749054E-6i
-3.348227662100417        -5                       0.47904111346076333+2.2626132974644032E-5i
-7.528618451352726        -1.1807084702648805      8.440946096403644+3.058582080458052E-4i
-8                        -0.8823529411764723      8.835748550664057+3.0893585383039504E-4i
-6.608764186404674        -2.947183566993162       6.182566914676856+2.608304132299144E-4i
-7.057687126264015        -2.070528581941398       7.29015556676057+2.883616600693636E-4i
-6.591689772644503        -2.3639746445051744      6.816197415864534+2.810765717420219E-4i
-7.058536983226518        -1.4791600854537368      8.01694461694324+3.0350470548091193E-4i
-4.597298700095433        -3.4545400657804786      3.523287769615236+1.7829421565963586E-4i
-4.427129992563021        -3.5243361416974572      3.0613710765067363+1.58162332638351E-4i
-3.7584272056580588       -3.95                    0
-3.8170105814901754       -3.832649960939622       0.6248222967587568+3.618032228093645E-5i
-3.879849986478576        -3.712727203591832       1.2804885794469094+7.32824900642828E-5i
-4.272189047061366        -3.4940027760681773      2.8263096951455835+1.5050857089544134E-4i
-4.1232353139926765       -3.503216245058444       2.5120922815330258+1.3783583337248896E-4i
-3.9441530287302884       -3.6020413293778573      1.8440420397574935+1.0468127985543262E-4i
-4.016268158489865        -3.5187473202441715      2.268429374326623+1.274137381166681E-4i
-6.141849297497634        -3.2431504806277838      5.611019833712622+2.449822568138737E-4i
-5.7727281348468065       -3.3728578253484556      5.173192071771111+2.3198904487413175E-4i
-5.456686356136915        -3.4855733771926496      4.719554736309725+2.1688211363751284E-4i
-5.046241244641107        -3.4613122830513947      4.2227415065573775+2.0194146219207904E-4i
-4.771739429991202        -3.3922880874391623      3.923203625214677+1.944993794705396E-4i
-4.617401581588039        -3.286140436148868       3.8863099863121264+1.981527971623015E-4i
-2.853848249588415        -4.162996569886446       0.04049547899233157+1.9148717344336366E-6i
-2.7266215281046344       -4.165427500844519       0.03338295383228305+1.578321271816712E-6i
-2.588197384522768        -4.178366903282493       0.02940454671087973+1.3900832012494234E-6i
-3.059370092166711        -4.05                    0
-2.9203078152500392       -4.05                    0
-3.6193680185721444       -3.95                    0
-3.687969610264721        -3.8263560581000897      0.572223482803985+3.455146190873686E-5i
-3.4801615563193646       -3.95                    0
-3.5514646592142194       -3.825287512690319       0.5283119345563613+3.321730505261329E-5i
-3.340955094066585        -3.95                    0
-3.41126805731786         -3.825618612802881       0.4972826682087829+3.249506263722912E-5i
-3.2017486318138046       -3.95                    0
-3.272179831996173        -3.8249720838961156      0.4814549014004211+3.2605044169382185E-5i
-3.0625421695610253       -3.95                    0
-3.1346016922149897       -3.8252165571812444      0.46910279863860255+3.2837855074366995E-5i
-2.4431071078979336       -4.208057839231935       0.02831839263309835+1.3386442822918686E-6i
-2.358309154362316        -4.376234092803687       0.04889263694219062+2.311104011602178E-6i
-2.29394741792818         -4.202721036188589       0.021384104213517927+1.0108122577022E-6i
-2.209873841545347        -4.339840923338801       0.03432998939297305+1.622714157213532E-6i
-2.0910225905920736       -4.297144993859561       0.024305628290750378+1.148870594280736E-6i
-2.0935858421414446       -4.425972840695075       0.03574518993647351+1.689578363288918E-6i
-1.9601590709739565       -4.343453660432961       0.022985246503258245+1.0864467299761672E-6i
-2.5331215887265097       -4.627683157060812       0.10358761237310567+4.896288776016711E-6i
-2.2529357469262905       -4.544580405277039       0.05833149108296921+2.7571653778350027E-6i
-2.8640176231357355       -5                       0.2181534380703376+1.0309938620585396E-5i
-7.529286930892119        -0.5913964069706176      9.209471031269084+3.1365079637220007E-4i
-8                        -0.29411764705882604     9.608495770402467+3.1403580070583253E-4i
-7.530089759709245        -0.00234831149339886     9.996468805179667+3.1637060922136195E-4i
-8                        0.2941176470588207       10.390735695087233+3.140380945306916E-4i
-7.53115962179015         0.5869482055667269       10.783816134597144+3.136831007172273E-4i
-8                        0.8823529411764666       11.163473046631898+3.089427295556634E-4i
-7.5329195521785834       1.176912715622182        11.553193660735714+3.0590861048144163E-4i
-8                        1.4705882352941124       11.90693588560435+2.9939101181414795E-4i
-7.5346744783179345       1.76791154219762         12.28437904190177+2.940128763532133E-4i
-8                        2.0588235294117583       12.599312223513886+2.8660628379315067E-4i
-7.534125656032507        2.3561483727805848       12.949872836720958+2.7962625756102833E-4i
-8                        2.647058823529404        13.216355663464599+2.722678741404831E-4i
-7.059899330636081        -0.888991445051388       8.790332502858197+3.1475369117243794E-4i
-6.121299744138974        -2.6695682492632113      6.238235550900165+2.6933684305894585E-4i
-6.588241088984087        -1.7768145533179316      7.54560332335337+3.005808733525344E-4i
-6.117553265610895        -2.07738989895146        7.00009812381646+2.951785895863826E-4i
-6.591053780147692        -1.1866111307696487      8.335241626813477+3.165275453280924E-4i
-4.410264158713377        -3.3253139114967403      3.4837711890603744+1.8337338394479728E-4i
-3.756547097006234        -3.7016763028351627      1.177128525302679+6.99680779600982E-5i
-3.8307434913986          -3.5809848207072754      1.7580347554243367+1.0309611113931793E-4i
-4.1987319642252725       -3.346720498658019       3.0935736460535748+1.6929426033564105E-4i
-4.035332850298772        -3.398482949438849       2.6903561201969253+1.5196460017204456E-4i
-3.9202107552509893       -3.4722390246381725      2.279427146344841+1.3162373504312414E-4i
-5.635809987282549        -3.001762284092789       5.4888614525405055+2.4882495334131743E-4i
-5.216915475766233        -3.168276893121327       4.857546855782117+2.2979405711692023E-4i
-4.856093788155469        -3.1297175740478673      4.498962199806989+2.230003390810233E-4i
-4.547631678208451        -3.0894222392197763      4.195825434355519+2.1855311115657916E-4i
-2.7812455383333674       -4.05                    0
-2.6421832614166956       -4.05                    0
-2.5031209845000237       -4.05                    0
-2.9233357073082455       -3.95                    0
-2.9940166579498952       -3.8266270490519396      0.4569523104078001+3.301652645590962E-5i
-3.6249775009866427       -3.698345940679345       1.0900337676543572+6.732680899448815E-5i
-3.4850364686036617       -3.7013904546752414      1.0104442989628506+6.486624839680174E-5i
-3.3378065599760136       -3.70205172383729        0.96359042135703+6.427666701985992E-5i
-3.206698260965921        -3.6969439592688973      0.9574413590893528+6.596019587130977E-5i
-3.070424601003115        -3.702756250870508       0.9191519709096044+6.53482822743375E-5i
-2.163339265513452        -4.192193361757118       0.01606090219710436+7.59171777390912E-7i
-2.364058707583352        -4.05                    0
-2.22499643066668         -4.05                    0
-2.015102134475188        -4.1859828966749175      0.012030040442039853+5.686307967057906E-7i
-1.8839716398402662       -4.202889460154049       0.010870619230851641+5.13823022633366E-7i
-1.7787206221484695       -4.362133204347534       0.018034479147639223+8.524314693968852E-7i
-1.6652809864756641       -4.275637639592764       0.01105813010053233+5.226812724004502E-7i
-1.6356808693076768       -4.374952853964704       0.014795844941130598+6.993492772082769E-7i